# vtk DataFile Version 2.0
VTK example
ASCII
DATASET UNSTRUCTURED_GRID
POINTS  128  float
-0.000441 -0.000117 -0.000179
-0.000435 -0.000118 -0.000171
-0.000430 -0.000119 -0.000164
-0.000424 -0.000119 -0.000157
-0.000418 -0.000120 -0.000151
-0.000412 -0.000121 -0.000144
-0.000405 -0.000121 -0.000138
-0.000398 -0.000122 -0.000132
-0.000391 -0.000122 -0.000127
-0.000383 -0.000122 -0.000122
-0.000375 -0.000122 -0.000118
-0.000367 -0.000122 -0.000115
-0.000358 -0.000122 -0.000112
-0.000349 -0.000122 -0.000110
-0.000340 -0.000121 -0.000109
-0.000331 -0.000120 -0.000108
-0.000322 -0.000120 -0.000108
-0.000313 -0.000119 -0.000109
-0.000304 -0.000118 -0.000111
-0.000296 -0.000117 -0.000113
-0.000287 -0.000116 -0.000116
-0.000279 -0.000115 -0.000119
-0.000270 -0.000114 -0.000122
-0.000262 -0.000113 -0.000126
-0.000254 -0.000112 -0.000130
-0.000247 -0.000112 -0.000135
-0.000239 -0.000111 -0.000140
-0.000231 -0.000110 -0.000144
-0.000224 -0.000109 -0.000149
-0.000216 -0.000107 -0.000154
-0.000209 -0.000106 -0.000159
-0.000201 -0.000105 -0.000164
-0.000193 -0.000103 -0.000168
-0.000185 -0.000102 -0.000173
-0.000177 -0.000101 -0.000177
-0.000170 -0.000099 -0.000181
-0.000161 -0.000097 -0.000184
-0.000153 -0.000096 -0.000188
-0.000145 -0.000094 -0.000191
-0.000136 -0.000092 -0.000194
-0.000128 -0.000090 -0.000196
-0.000119 -0.000088 -0.000198
-0.000111 -0.000086 -0.000200
-0.000102 -0.000083 -0.000201
-0.000093 -0.000081 -0.000202
-0.000085 -0.000078 -0.000202
-0.000076 -0.000075 -0.000202
-0.000068 -0.000072 -0.000201
-0.000059 -0.000069 -0.000200
-0.000051 -0.000066 -0.000198
-0.000043 -0.000062 -0.000195
-0.000036 -0.000059 -0.000192
-0.000028 -0.000055 -0.000188
-0.000021 -0.000051 -0.000184
-0.000015 -0.000047 -0.000178
-0.000009 -0.000044 -0.000173
-0.000004 -0.000040 -0.000166
0.000001 -0.000036 -0.000160
0.000005 -0.000033 -0.000152
0.000009 -0.000029 -0.000145
0.000012 -0.000026 -0.000137
0.000015 -0.000022 -0.000129
0.000017 -0.000019 -0.000121
0.000018 -0.000016 -0.000113
0.000020 -0.000012 -0.000105
0.000021 -0.000009 -0.000096
0.000022 -0.000006 -0.000088
0.000023 -0.000003 -0.000079
0.000023 0.000001 -0.000071
0.000023 0.000004 -0.000062
0.000024 0.000007 -0.000054
0.000024 0.000011 -0.000046
0.000024 0.000014 -0.000037
0.000024 0.000018 -0.000029
0.000025 0.000022 -0.000021
0.000025 0.000026 -0.000013
0.000025 0.000030 -0.000005
0.000026 0.000034 0.000003
0.000027 0.000038 0.000011
0.000028 0.000043 0.000019
0.000029 0.000048 0.000027
0.000031 0.000053 0.000034
0.000033 0.000058 0.000041
0.000036 0.000063 0.000048
0.000039 0.000069 0.000054
0.000043 0.000074 0.000061
0.000047 0.000080 0.000066
0.000051 0.000086 0.000071
0.000056 0.000092 0.000076
0.000062 0.000098 0.000080
0.000068 0.000104 0.000083
0.000074 0.000110 0.000085
0.000081 0.000115 0.000087
0.000088 0.000121 0.000088
0.000096 0.000126 0.000089
0.000103 0.000131 0.000089
0.000111 0.000136 0.000088
0.000119 0.000140 0.000087
0.000127 0.000144 0.000085
0.000134 0.000148 0.000082
0.000142 0.000152 0.000080
0.000150 0.000155 0.000077
0.000158 0.000158 0.000073
0.000166 0.000161 0.000070
0.000173 0.000164 0.000066
0.000181 0.000167 0.000062
0.000189 0.000169 0.000058
0.000196 0.000171 0.000053
0.000204 0.000173 0.000049
0.000212 0.000175 0.000045
0.000219 0.000177 0.000040
0.000227 0.000179 0.000036
0.000235 0.000180 0.000031
0.000243 0.000182 0.000027
0.000251 0.000183 0.000023
0.000259 0.000184 0.000018
0.000267 0.000185 0.000015
0.000275 0.000186 0.000011
0.000283 0.000187 0.000007
0.000292 0.000188 0.000004
0.000300 0.000188 0.000002
0.000309 0.000189 -0.000001
0.000318 0.000189 -0.000003
0.000327 0.000189 -0.000004
0.000336 0.000190 -0.000006
0.000345 0.000190 -0.000007
0.000354 0.000190 -0.000008
0.000363 0.000190 -0.000008
CELLS  127 381
2 0 1 
2 1 2 
2 2 3 
2 3 4 
2 4 5 
2 5 6 
2 6 7 
2 7 8 
2 8 9 
2 9 10 
2 10 11 
2 11 12 
2 12 13 
2 13 14 
2 14 15 
2 15 16 
2 16 17 
2 17 18 
2 18 19 
2 19 20 
2 20 21 
2 21 22 
2 22 23 
2 23 24 
2 24 25 
2 25 26 
2 26 27 
2 27 28 
2 28 29 
2 29 30 
2 30 31 
2 31 32 
2 32 33 
2 33 34 
2 34 35 
2 35 36 
2 36 37 
2 37 38 
2 38 39 
2 39 40 
2 40 41 
2 41 42 
2 42 43 
2 43 44 
2 44 45 
2 45 46 
2 46 47 
2 47 48 
2 48 49 
2 49 50 
2 50 51 
2 51 52 
2 52 53 
2 53 54 
2 54 55 
2 55 56 
2 56 57 
2 57 58 
2 58 59 
2 59 60 
2 60 61 
2 61 62 
2 62 63 
2 63 64 
2 64 65 
2 65 66 
2 66 67 
2 67 68 
2 68 69 
2 69 70 
2 70 71 
2 71 72 
2 72 73 
2 73 74 
2 74 75 
2 75 76 
2 76 77 
2 77 78 
2 78 79 
2 79 80 
2 80 81 
2 81 82 
2 82 83 
2 83 84 
2 84 85 
2 85 86 
2 86 87 
2 87 88 
2 88 89 
2 89 90 
2 90 91 
2 91 92 
2 92 93 
2 93 94 
2 94 95 
2 95 96 
2 96 97 
2 97 98 
2 98 99 
2 99 100 
2 100 101 
2 101 102 
2 102 103 
2 103 104 
2 104 105 
2 105 106 
2 106 107 
2 107 108 
2 108 109 
2 109 110 
2 110 111 
2 111 112 
2 112 113 
2 113 114 
2 114 115 
2 115 116 
2 116 117 
2 117 118 
2 118 119 
2 119 120 
2 120 121 
2 121 122 
2 122 123 
2 123 124 
2 124 125 
2 125 126 
2 126 127 
CELL_TYPES  127
3
3
3
3
3
3
3
3
3
3
3
3
3
3
3
3
3
3
3
3
3
3
3
3
3
3
3
3
3
3
3
3
3
3
3
3
3
3
3
3
3
3
3
3
3
3
3
3
3
3
3
3
3
3
3
3
3
3
3
3
3
3
3
3
3
3
3
3
3
3
3
3
3
3
3
3
3
3
3
3
3
3
3
3
3
3
3
3
3
3
3
3
3
3
3
3
3
3
3
3
3
3
3
3
3
3
3
3
3
3
3
3
3
3
3
3
3
3
3
3
3
3
3
3
3
3
3
POINT_DATA  128
VECTORS Position float
-0.000441 -0.000117 -0.000179
-0.000435 -0.000118 -0.000171
-0.000430 -0.000119 -0.000164
-0.000424 -0.000119 -0.000157
-0.000418 -0.000120 -0.000151
-0.000412 -0.000121 -0.000144
-0.000405 -0.000121 -0.000138
-0.000398 -0.000122 -0.000132
-0.000391 -0.000122 -0.000127
-0.000383 -0.000122 -0.000122
-0.000375 -0.000122 -0.000118
-0.000367 -0.000122 -0.000115
-0.000358 -0.000122 -0.000112
-0.000349 -0.000122 -0.000110
-0.000340 -0.000121 -0.000109
-0.000331 -0.000120 -0.000108
-0.000322 -0.000120 -0.000108
-0.000313 -0.000119 -0.000109
-0.000304 -0.000118 -0.000111
-0.000296 -0.000117 -0.000113
-0.000287 -0.000116 -0.000116
-0.000279 -0.000115 -0.000119
-0.000270 -0.000114 -0.000122
-0.000262 -0.000113 -0.000126
-0.000254 -0.000112 -0.000130
-0.000247 -0.000112 -0.000135
-0.000239 -0.000111 -0.000140
-0.000231 -0.000110 -0.000144
-0.000224 -0.000109 -0.000149
-0.000216 -0.000107 -0.000154
-0.000209 -0.000106 -0.000159
-0.000201 -0.000105 -0.000164
-0.000193 -0.000103 -0.000168
-0.000185 -0.000102 -0.000173
-0.000177 -0.000101 -0.000177
-0.000170 -0.000099 -0.000181
-0.000161 -0.000097 -0.000184
-0.000153 -0.000096 -0.000188
-0.000145 -0.000094 -0.000191
-0.000136 -0.000092 -0.000194
-0.000128 -0.000090 -0.000196
-0.000119 -0.000088 -0.000198
-0.000111 -0.000086 -0.000200
-0.000102 -0.000083 -0.000201
-0.000093 -0.000081 -0.000202
-0.000085 -0.000078 -0.000202
-0.000076 -0.000075 -0.000202
-0.000068 -0.000072 -0.000201
-0.000059 -0.000069 -0.000200
-0.000051 -0.000066 -0.000198
-0.000043 -0.000062 -0.000195
-0.000036 -0.000059 -0.000192
-0.000028 -0.000055 -0.000188
-0.000021 -0.000051 -0.000184
-0.000015 -0.000047 -0.000178
-0.000009 -0.000044 -0.000173
-0.000004 -0.000040 -0.000166
0.000001 -0.000036 -0.000160
0.000005 -0.000033 -0.000152
0.000009 -0.000029 -0.000145
0.000012 -0.000026 -0.000137
0.000015 -0.000022 -0.000129
0.000017 -0.000019 -0.000121
0.000018 -0.000016 -0.000113
0.000020 -0.000012 -0.000105
0.000021 -0.000009 -0.000096
0.000022 -0.000006 -0.000088
0.000023 -0.000003 -0.000079
0.000023 0.000001 -0.000071
0.000023 0.000004 -0.000062
0.000024 0.000007 -0.000054
0.000024 0.000011 -0.000046
0.000024 0.000014 -0.000037
0.000024 0.000018 -0.000029
0.000025 0.000022 -0.000021
0.000025 0.000026 -0.000013
0.000025 0.000030 -0.000005
0.000026 0.000034 0.000003
0.000027 0.000038 0.000011
0.000028 0.000043 0.000019
0.000029 0.000048 0.000027
0.000031 0.000053 0.000034
0.000033 0.000058 0.000041
0.000036 0.000063 0.000048
0.000039 0.000069 0.000054
0.000043 0.000074 0.000061
0.000047 0.000080 0.000066
0.000051 0.000086 0.000071
0.000056 0.000092 0.000076
0.000062 0.000098 0.000080
0.000068 0.000104 0.000083
0.000074 0.000110 0.000085
0.000081 0.000115 0.000087
0.000088 0.000121 0.000088
0.000096 0.000126 0.000089
0.000103 0.000131 0.000089
0.000111 0.000136 0.000088
0.000119 0.000140 0.000087
0.000127 0.000144 0.000085
0.000134 0.000148 0.000082
0.000142 0.000152 0.000080
0.000150 0.000155 0.000077
0.000158 0.000158 0.000073
0.000166 0.000161 0.000070
0.000173 0.000164 0.000066
0.000181 0.000167 0.000062
0.000189 0.000169 0.000058
0.000196 0.000171 0.000053
0.000204 0.000173 0.000049
0.000212 0.000175 0.000045
0.000219 0.000177 0.000040
0.000227 0.000179 0.000036
0.000235 0.000180 0.000031
0.000243 0.000182 0.000027
0.000251 0.000183 0.000023
0.000259 0.000184 0.000018
0.000267 0.000185 0.000015
0.000275 0.000186 0.000011
0.000283 0.000187 0.000007
0.000292 0.000188 0.000004
0.000300 0.000188 0.000002
0.000309 0.000189 -0.000001
0.000318 0.000189 -0.000003
0.000327 0.000189 -0.000004
0.000336 0.000190 -0.000006
0.000345 0.000190 -0.000007
0.000354 0.000190 -0.000008
0.000363 0.000190 -0.000008
VECTORS Rotation float
0.653370 -0.087605 -0.644034
0.653055 -0.086970 -0.650141
0.652126 -0.084995 -0.668376
0.650680 -0.081510 -0.698185
0.648894 -0.076285 -0.738582
0.646962 -0.069018 -0.788732
0.645129 -0.059440 -0.847673
0.643687 -0.047396 -0.914348
0.643037 -0.033160 -0.986393
0.643400 -0.016870 -1.063444
0.645041 0.000824 -1.143788
0.648101 0.019093 -1.225890
0.652596 0.037141 -1.308925
0.658445 0.054131 -1.392041
0.665436 0.069120 -1.473511
0.673318 0.081613 -1.553080
0.681781 0.091206 -1.629840
0.690522 0.097809 -1.703242
0.699267 0.101605 -1.772829
0.707773 0.103024 -1.838005
0.715886 0.102717 -1.898620
0.723454 0.101471 -1.953769
0.730406 0.100125 -2.002924
0.736712 0.099469 -2.045579
0.742351 0.100160 -2.081059
0.747311 0.102640 -2.108966
0.751559 0.107092 -2.128887
0.755043 0.113414 -2.140672
0.757689 0.121302 -2.144535
0.759426 0.130235 -2.140914
0.760206 0.139599 -2.130529
0.759991 0.148875 -2.114223
0.758809 0.157613 -2.093008
0.756687 0.165635 -2.067759
0.753794 0.172848 -2.039772
0.750071 0.179649 -2.009242
0.745697 0.186327 -1.977289
0.740513 0.193533 -1.943499
0.734535 0.201696 -1.908242
0.727514 0.211372 -1.870765
0.719298 0.222836 -1.830850
0.709649 0.236259 -1.788016
0.698305 0.251644 -1.741815
0.684867 0.268994 -1.691361
0.669183 0.287828 -1.636843
0.650857 0.307886 -1.577528
0.629723 0.328537 -1.513522
0.605596 0.349168 -1.444737
0.578220 0.369209 -1.370755
0.547725 0.387790 -1.292144
0.514175 0.404196 -1.208996
0.477832 0.417704 -1.121701
0.439233 0.427661 -1.031078
0.399105 0.433615 -0.938174
0.358378 0.435386 -0.844345
0.318047 0.433129 -0.751049
0.279208 0.427344 -0.660079
0.242795 0.418840 -0.573056
0.209521 0.408623 -0.491400
0.179840 0.397777 -0.416233
0.153949 0.387328 -0.348337
0.131826 0.378140 -0.288137
0.113121 0.370772 -0.235258
0.097719 0.365662 -0.189920
0.085011 0.362883 -0.150940
0.075000 0.362466 -0.118589
0.067050 0.364260 -0.091409
0.060982 0.368083 -0.069022
0.056790 0.373671 -0.051368
0.054319 0.380877 -0.038027
0.053396 0.389724 -0.028627
0.054230 0.399890 -0.023436
0.056810 0.411565 -0.022450
0.061306 0.424744 -0.025912
0.067935 0.439461 -0.034120
0.076952 0.455592 -0.047293
0.088751 0.473622 -0.066163
0.103692 0.493411 -0.090996
0.122256 0.514986 -0.122315
0.145018 0.538281 -0.160718
0.172640 0.563072 -0.206859
0.206159 0.589227 -0.262060
0.245673 0.615445 -0.325630
0.292689 0.641455 -0.399713
0.347305 0.665747 -0.483823
0.408971 0.686743 -0.576718
0.478538 0.703526 -0.679875
0.554091 0.714464 -0.790529
0.633650 0.718514 -0.906312
0.714713 0.715098 -1.024343
0.794589 0.704197 -1.141550
0.870816 0.686332 -1.255114
0.940734 0.662773 -1.361503
1.004684 0.634131 -1.461825
1.060719 0.602362 -1.552792
1.109513 0.568351 -1.635312
1.150950 0.533627 -1.708505
1.186086 0.498682 -1.773641
1.215272 0.464683 -1.830388
1.239787 0.431330 -1.880658
1.259816 0.399908 -1.923670
1.276231 0.370361 -1.960531
1.289606 0.342979 -1.991711
1.300541 0.317658 -2.018020
1.309505 0.294291 -2.040107
1.316825 0.273034 -2.058231
1.322797 0.253730 -2.072783
1.327639 0.236181 -2.083997
1.331500 0.220134 -2.091961
1.334481 0.205273 -2.096627
1.336651 0.191350 -2.097783
1.338039 0.177972 -2.095117
1.338693 0.164921 -2.088249
1.338643 0.151911 -2.076746
1.337939 0.138732 -2.060198
1.336674 0.125299 -2.038345
1.334960 0.111595 -2.011076
1.332949 0.097735 -1.978583
1.330810 0.083921 -1.941380
1.328713 0.070434 -1.900383
1.326817 0.057633 -1.857019
1.325226 0.045834 -1.812952
1.324007 0.035397 -1.770394
1.323149 0.026551 -1.731428
1.322610 0.019531 -1.698420
1.322307 0.014434 -1.673190
1.322166 0.011368 -1.657472
1.322126 0.010340 -1.652106
VECTORS ControlForce float
0.000000 0.000000 0.000000
-0.000276 -0.000101 0.000042
-0.000524 -0.000195 0.000086
-0.000708 -0.000275 0.000113
-0.000817 -0.000354 0.000118
-0.000838 -0.000439 0.000107
-0.000788 -0.000545 0.000094
-0.000674 -0.000663 0.000075
-0.000516 -0.000778 0.000043
-0.000353 -0.000871 0.000007
-0.000224 -0.000930 -0.000028
-0.000122 -0.000918 -0.000066
-0.000043 -0.000819 -0.000098
0.000006 -0.000650 -0.000112
0.000020 -0.000433 -0.000106
-0.000003 -0.000198 -0.000080
-0.000074 0.000023 -0.000038
-0.000207 0.000197 0.000006
-0.000384 0.000309 0.000043
-0.000566 0.000358 0.000064
-0.000712 0.000342 0.000070
-0.000778 0.000280 0.000062
-0.000760 0.000172 0.000038
-0.000644 0.000046 0.000006
-0.000425 -0.000063 -0.000022
-0.000126 -0.000131 -0.000039
0.000217 -0.000140 -0.000046
0.000548 -0.000093 -0.000056
0.000808 -0.000001 -0.000075
0.000965 0.000135 -0.000106
0.000998 0.000299 -0.000148
0.000888 0.000456 -0.000195
0.000677 0.000589 -0.000229
0.000414 0.000674 -0.000243
0.000121 0.000673 -0.000249
-0.000166 0.000575 -0.000243
-0.000397 0.000417 -0.000223
-0.000554 0.000228 -0.000188
-0.000616 0.000055 -0.000136
-0.000574 -0.000067 -0.000068
-0.000457 -0.000139 0.000001
-0.000327 -0.000188 0.000056
-0.000200 -0.000215 0.000099
-0.000095 -0.000222 0.000140
-0.000029 -0.000228 0.000173
0.000024 -0.000223 0.000204
0.000062 -0.000220 0.000228
0.000088 -0.000221 0.000246
0.000092 -0.000227 0.000264
0.000100 -0.000210 0.000279
0.000107 -0.000164 0.000292
0.000134 -0.000071 0.000299
0.000198 0.000074 0.000288
0.000293 0.000253 0.000252
0.000406 0.000435 0.000185
0.000505 0.000580 0.000090
0.000547 0.000644 -0.000015
0.000533 0.000630 -0.000132
0.000447 0.000536 -0.000245
0.000284 0.000368 -0.000327
0.000075 0.000168 -0.000378
-0.000141 -0.000023 -0.000401
-0.000330 -0.000187 -0.000385
-0.000458 -0.000302 -0.000345
-0.000506 -0.000358 -0.000296
-0.000481 -0.000368 -0.000248
-0.000402 -0.000339 -0.000196
-0.000293 -0.000284 -0.000152
-0.000172 -0.000214 -0.000132
-0.000059 -0.000140 -0.000130
0.000036 -0.000066 -0.000126
0.000110 -0.000004 -0.000110
0.000163 0.000055 -0.000078
0.000196 0.000113 -0.000029
0.000213 0.000169 0.000020
0.000217 0.000214 0.000065
0.000212 0.000245 0.000111
0.000201 0.000250 0.000157
0.000183 0.000215 0.000205
0.000160 0.000153 0.000243
0.000132 0.000087 0.000260
0.000092 0.000019 0.000267
0.000029 -0.000062 0.000264
-0.000056 -0.000135 0.000251
-0.000161 -0.000196 0.000222
-0.000280 -0.000252 0.000180
-0.000392 -0.000293 0.000136
-0.000471 -0.000291 0.000084
-0.000519 -0.000276 0.000032
-0.000532 -0.000259 -0.000016
-0.000506 -0.000240 -0.000061
-0.000451 -0.000231 -0.000102
-0.000362 -0.000219 -0.000138
-0.000254 -0.000200 -0.000153
-0.000148 -0.000189 -0.000156
-0.000051 -0.000164 -0.000152
0.000042 -0.000101 -0.000142
0.000114 -0.000024 -0.000122
0.000162 0.000057 -0.000090
0.000190 0.000137 -0.000040
0.000203 0.000206 0.000006
0.000215 0.000265 0.000039
0.000231 0.000303 0.000063
0.000245 0.000294 0.000086
0.000261 0.000248 0.000119
0.000267 0.000145 0.000149
0.000275 0.000023 0.000178
0.000284 -0.000100 0.000207
0.000289 -0.000221 0.000234
0.000275 -0.000344 0.000259
0.000243 -0.000447 0.000287
0.000198 -0.000498 0.000326
0.000139 -0.000505 0.000369
0.000075 -0.000448 0.000417
0.000009 -0.000322 0.000465
-0.000049 -0.000124 0.000507
-0.000085 0.000142 0.000535
-0.000082 0.000478 0.000543
-0.000037 0.000846 0.000523
0.000049 0.001218 0.000475
0.000158 0.001543 0.000399
0.000265 0.001763 0.000303
0.000343 0.001831 0.000201
0.000378 0.001742 0.000111
0.000351 0.001469 0.000042
0.000267 0.001050 0.000004
0.000141 0.000536 -0.000008
-0.000000 -0.000000 -0.000000
VECTORS ControlTorque float
0.000000 -0.000005 -0.000001
0.000000 -0.000005 -0.000001
0.000000 -0.000005 -0.000001
0.000000 -0.000004 -0.000001
0.000000 -0.000004 -0.000001
0.000001 -0.000004 -0.000001
0.000001 -0.000004 -0.000001
0.000000 -0.000001 -0.000001
0.000000 -0.000003 -0.000001
0.000000 -0.000001 -0.000001
0.000000 -0.000000 -0.000000
-0.000000 -0.000000 -0.000000
-0.000000 -0.000000 0.000000
-0.000000 0.000001 0.000001
-0.000000 0.000000 0.000001
-0.000000 0.000001 0.000001
-0.000000 0.000001 0.000001
-0.000000 0.000002 0.000001
-0.000000 0.000002 0.000001
0.000000 0.000002 0.000001
-0.000000 0.000002 0.000000
-0.000000 0.000002 -0.000000
-0.000000 0.000003 -0.000000
-0.000001 0.000003 -0.000000
-0.000001 0.000003 -0.000001
-0.000001 0.000003 -0.000001
-0.000001 0.000003 -0.000000
-0.000001 0.000003 -0.000000
-0.000001 0.000003 -0.000000
-0.000000 0.000003 0.000000
-0.000000 0.000002 0.000000
-0.000000 0.000002 0.000000
-0.000000 0.000002 0.000000
0.000000 0.000001 0.000000
-0.000000 0.000002 0.000000
0.000000 -0.000000 0.000000
-0.000000 0.000001 -0.000000
-0.000000 0.000000 -0.000000
-0.000001 0.000001 -0.000001
-0.000000 0.000001 -0.000001
-0.000001 0.000001 -0.000001
-0.000000 0.000001 -0.000001
-0.000001 0.000002 -0.000001
-0.000000 0.000001 -0.000001
-0.000001 0.000002 -0.000001
-0.000000 0.000001 -0.000001
-0.000000 0.000001 -0.000001
-0.000001 0.000002 -0.000001
-0.000000 0.000001 -0.000000
-0.000000 0.000001 -0.000000
-0.000000 0.000001 -0.000000
-0.000000 0.000001 0.000000
-0.000000 0.000001 0.000000
-0.000000 0.000000 0.000000
-0.000000 -0.000000 0.000000
0.000000 -0.000001 0.000000
0.000000 -0.000001 0.000000
0.000001 -0.000002 0.000000
0.000001 -0.000002 0.000001
0.000001 -0.000002 0.000001
0.000001 -0.000003 0.000001
0.000001 -0.000002 0.000001
0.000002 -0.000003 0.000001
0.000001 -0.000002 0.000000
0.000001 -0.000003 0.000001
0.000001 -0.000001 0.000000
0.000001 -0.000002 0.000001
0.000001 -0.000002 0.000001
0.000001 -0.000002 0.000001
0.000001 -0.000001 0.000001
0.000000 -0.000002 0.000001
0.000001 -0.000001 0.000001
0.000001 -0.000002 0.000001
0.000001 -0.000002 0.000001
0.000000 -0.000001 0.000001
0.000001 -0.000002 0.000001
0.000001 -0.000002 0.000001
0.000001 -0.000002 0.000001
0.000001 -0.000002 0.000001
0.000001 -0.000002 0.000001
0.000002 -0.000003 0.000001
0.000000 -0.000001 0.000001
0.000002 -0.000003 0.000001
0.000001 -0.000002 0.000001
0.000000 -0.000001 0.000000
0.000002 -0.000003 0.000002
0.000000 -0.000001 0.000001
0.000000 -0.000001 0.000001
0.000000 -0.000001 0.000000
-0.000000 -0.000000 0.000000
0.000000 -0.000000 0.000000
-0.000001 0.000002 -0.000001
0.000001 -0.000001 0.000001
-0.000002 0.000002 -0.000001
-0.000000 0.000000 -0.000000
-0.000002 0.000002 -0.000001
-0.000001 0.000001 -0.000000
-0.000002 0.000003 -0.000001
-0.000000 0.000000 0.000000
-0.000002 0.000003 -0.000001
-0.000001 0.000001 -0.000001
-0.000001 0.000002 -0.000001
-0.000001 0.000001 -0.000001
-0.000001 0.000001 -0.000000
-0.000001 0.000001 -0.000001
-0.000001 0.000001 -0.000001
-0.000001 0.000001 -0.000001
-0.000001 0.000001 -0.000000
-0.000000 0.000001 -0.000000
-0.000000 0.000001 -0.000000
-0.000000 0.000002 0.000000
-0.000000 0.000002 0.000000
-0.000000 0.000002 0.000000
-0.000000 0.000002 0.000000
-0.000000 0.000002 0.000000
-0.000000 0.000002 0.000000
-0.000000 0.000002 0.000000
-0.000000 0.000002 0.000000
-0.000000 0.000002 -0.000000
-0.000000 0.000001 -0.000000
-0.000000 0.000000 -0.000000
-0.000000 -0.000001 -0.000001
-0.000000 -0.000001 -0.000001
-0.000000 -0.000003 -0.000001
-0.000000 -0.000003 -0.000001
-0.000000 -0.000004 -0.000001
-0.000000 -0.000004 -0.000001
-0.000000 -0.000005 -0.000001
VECTORS Curvature float
-265.450624 281.931273 -13.908020
-857.893585 905.343435 -44.152606
-1880.289504 1963.672038 -94.812628
-2727.600155 2797.165888 -135.833172
-3558.106006 3561.360151 -173.576571
-4354.108590 4233.983670 -204.658062
-5164.323270 4864.155275 -228.855049
-5776.403698 5272.431364 -244.582711
-6280.547644 5567.467073 -253.879974
-6766.315907 5862.446247 -255.446657
-6998.691932 5976.562329 -251.286652
-7099.973673 6040.360139 -243.107884
-7149.632730 6133.135257 -232.500417
-6977.745040 6108.755402 -220.632714
-6672.479538 6034.113590 -210.898789
-6339.058785 5980.308610 -203.025238
-5899.721403 5851.358207 -198.780846
-5452.755620 5705.804671 -197.992477
-4974.804928 5482.867659 -200.390471
-4535.263245 5225.505063 -205.206872
-4114.274320 4882.986888 -211.454756
-3674.415683 4398.194500 -218.195169
-3279.508443 3846.211287 -224.611342
-2883.774335 3190.640188 -230.197399
-2484.533831 2456.818277 -234.699358
-2075.663858 1675.467584 -238.089731
-1626.534579 862.433423 -240.425667
-1161.497021 77.360440 -241.757822
-685.381958 -645.399240 -241.908452
-202.213289 -1266.797316 -240.571381
265.254584 -1782.633012 -237.146190
695.049449 -2180.241821 -231.047194
1089.932731 -2503.598063 -221.581151
1386.991935 -2688.345198 -208.483824
1630.515643 -2858.939133 -191.181403
1781.472986 -2991.450209 -170.257624
1860.434478 -3126.850717 -145.561257
1904.740345 -3328.573301 -118.131886
1902.662252 -3562.452398 -88.283976
1913.272779 -3902.880523 -57.173458
1899.748497 -4254.173324 -25.385297
1893.174547 -4633.806126 6.156624
1933.068855 -5121.735098 37.038559
1982.979757 -5599.072443 65.294322
2044.275896 -6055.281148 91.545597
2142.692732 -6551.141970 113.812400
2230.190581 -6937.682300 132.284929
2362.435325 -7378.400918 146.772136
2504.698335 -7767.971254 156.023127
2644.268424 -8059.903227 161.225696
2812.088957 -8358.804617 161.810324
2978.356976 -8588.739446 158.157690
3130.392760 -8740.523753 150.629428
3250.702900 -8805.015580 139.438856
3325.881722 -8786.928200 124.819617
3330.308868 -8659.855860 106.927109
3243.953591 -8398.757728 85.911985
3070.009538 -8026.430884 61.969253
2809.682770 -7542.408846 35.480655
2476.992715 -6967.518385 6.978160
2081.663954 -6290.572517 -22.912358
1677.696838 -5641.231454 -53.646569
1256.193182 -4929.399202 -84.380863
856.598682 -4287.338935 -114.997748
486.227685 -3643.382296 -145.089900
146.921928 -3026.905679 -174.464744
-143.130362 -2595.215304 -202.858780
-400.455267 -2093.645563 -229.979855
-609.040432 -1606.908142 -255.663910
-827.203381 -1213.077486 -279.383769
-1010.595684 -805.275548 -301.081921
-1177.476677 -375.656115 -319.951190
-1379.775225 40.297637 -336.292066
-1587.466523 494.319174 -349.726797
-1762.896704 940.147132 -360.391290
-1992.354634 1428.967469 -368.879083
-2284.339005 1960.780254 -374.924838
-2552.077690 2473.015737 -379.267136
-2868.914799 3018.006750 -382.219369
-3182.779726 3544.251353 -383.786953
-3611.253468 4195.666313 -385.511307
-3953.767111 4734.138085 -384.518350
-4291.005932 5275.824025 -385.991521
-4751.666565 5966.012491 -385.089839
-4950.491104 6329.596738 -384.082079
-5234.499077 6814.377990 -385.090799
-5563.619759 7342.997464 -383.607889
-5701.159855 7620.426665 -383.457232
-5815.325304 7850.482758 -382.985767
-5849.792543 7954.827561 -382.571722
-5865.285710 8016.422941 -381.076051
-5678.598728 7775.214222 -380.141792
-5570.890441 7650.487383 -373.761362
-5423.143649 7445.700045 -370.039367
-5106.666192 7036.577848 -359.932471
-4791.802125 6634.298521 -351.255511
-4422.709210 6193.393625 -338.152019
-4021.111689 5721.441919 -327.309969
-3654.829784 5336.137771 -312.953642
-3289.432282 4956.245992 -302.782973
-2816.908132 4430.741930 -290.494368
-2427.451440 4017.977245 -280.357357
-2041.336451 3596.370274 -270.435871
-1725.583185 3272.608894 -261.524502
-1417.073699 2938.758119 -253.458207
-1114.601741 2598.682282 -245.660495
-834.039547 2305.060945 -238.294111
-553.092450 2039.280291 -231.200267
-260.394207 1815.433004 -224.378821
59.299049 1612.972432 -217.812189
422.046713 1443.141869 -211.451713
833.212134 1299.860105 -205.158174
1293.821277 1165.279812 -198.693546
1815.349297 1053.738815 -191.644364
2378.717763 945.367607 -183.409580
2965.841390 834.117341 -173.392398
3551.985151 715.421775 -160.930990
4094.556337 584.073057 -145.686897
4562.834239 442.616938 -127.701288
4885.964180 294.654509 -107.431861
5042.258943 151.190051 -86.158747
4970.952552 24.997547 -65.028572
4662.984879 -72.633306 -45.928643
4106.594781 -131.248949 -29.770945
3308.880262 -147.405532 -17.573121
2352.814721 -125.710863 -9.176903
1097.333199 -64.091754 -3.434761
356.652955 -21.790113 -1.113460
VECTORS LocalRotation float
0.779317 -0.105128 0.092801
0.774219 -0.099740 0.092537
0.761871 -0.086802 0.091911
0.741096 -0.065337 0.090871
0.712579 -0.036490 0.089467
0.676638 -0.001080 0.087749
0.633520 0.040134 0.085785
0.584261 0.085773 0.083654
0.529482 0.135022 0.081389
0.470494 0.186700 0.079086
0.408243 0.240240 0.076795
0.344262 0.294774 0.074551
0.279673 0.349953 0.072395
0.215908 0.405207 0.070350
0.154001 0.460278 0.068393
0.095126 0.514642 0.066520
0.039724 0.568201 0.064701
-0.011680 0.620532 0.062904
-0.058887 0.671184 0.061101
-0.102016 0.719748 0.059261
-0.141100 0.765424 0.057379
-0.176371 0.807454 0.055433
-0.207897 0.844830 0.053426
-0.235806 0.876695 0.051366
-0.260133 0.902287 0.049259
-0.280748 0.920967 0.047122
-0.297478 0.932436 0.044960
-0.310107 0.936693 0.042776
-0.318460 0.934124 0.040588
-0.322479 0.925466 0.038403
-0.322193 0.911616 0.036234
-0.317839 0.893649 0.034111
-0.309749 0.872421 0.032060
-0.298587 0.849025 0.030122
-0.284864 0.823797 0.028304
-0.269504 0.797459 0.026677
-0.252931 0.769618 0.025240
-0.235935 0.740477 0.024049
-0.218644 0.709183 0.023112
-0.201414 0.675474 0.022455
-0.184174 0.638593 0.022082
-0.166988 0.598322 0.021995
-0.149601 0.553991 0.022191
-0.131923 0.505594 0.022653
-0.113661 0.452748 0.023364
-0.094745 0.395792 0.024292
-0.074952 0.334737 0.025406
-0.054118 0.269796 0.026672
-0.032120 0.201337 0.028040
-0.008787 0.129614 0.029478
0.015940 0.055207 0.030942
0.042154 -0.021516 0.032390
0.069806 -0.099961 0.033788
0.098694 -0.179390 0.035101
0.128478 -0.259061 0.036298
0.158600 -0.338016 0.037347
0.188365 -0.415249 0.038220
0.216958 -0.489631 0.038890
0.243584 -0.560132 0.039331
0.267519 -0.625826 0.039523
0.288165 -0.685870 0.039451
0.305217 -0.739991 0.039104
0.318465 -0.787723 0.038480
0.328062 -0.829588 0.037575
0.334107 -0.865291 0.036404
0.336999 -0.895763 0.034944
0.337016 -0.921172 0.033239
0.334574 -0.942239 0.031294
0.329989 -0.959046 0.029088
0.323435 -0.971914 0.026647
0.315171 -0.980991 0.024037
0.305195 -0.986375 0.021205
0.293619 -0.987893 0.018234
0.280242 -0.985483 0.015142
0.265162 -0.979026 0.011946
0.248048 -0.968230 0.008622
0.228773 -0.952952 0.005270
0.206929 -0.932926 0.001863
0.182385 -0.908066 -0.001584
0.154928 -0.878292 -0.005060
0.124048 -0.843112 -0.008556
0.090026 -0.802953 -0.012019
0.052431 -0.757309 -0.015533
0.011651 -0.706611 -0.019010
-0.032136 -0.651119 -0.022482
-0.078688 -0.591043 -0.025997
-0.127470 -0.527085 -0.029470
-0.178392 -0.459444 -0.032937
-0.230480 -0.389471 -0.036404
-0.283243 -0.317980 -0.039867
-0.336213 -0.245765 -0.043320
-0.388359 -0.174432 -0.046758
-0.439705 -0.104024 -0.050199
-0.489134 -0.036152 -0.053543
-0.536882 0.029519 -0.056853
-0.581567 0.091233 -0.060064
-0.623471 0.149568 -0.063199
-0.661669 0.203469 -0.066209
-0.696656 0.253869 -0.069128
-0.727778 0.299997 -0.071887
-0.755428 0.342502 -0.074574
-0.779180 0.380767 -0.077159
-0.799512 0.415409 -0.079665
-0.816614 0.446596 -0.082080
-0.830787 0.474608 -0.084403
-0.842234 0.499646 -0.086660
-0.851058 0.521850 -0.088851
-0.857345 0.541541 -0.090979
-0.861033 0.559015 -0.093044
-0.861942 0.574526 -0.095045
-0.859760 0.588383 -0.096991
-0.854087 0.600779 -0.098874
-0.844451 0.611947 -0.100703
-0.830360 0.622004 -0.102472
-0.811375 0.631053 -0.104170
-0.787173 0.639111 -0.105786
-0.757670 0.646125 -0.107299
-0.723049 0.652009 -0.108687
-0.683852 0.656657 -0.109925
-0.641089 0.659994 -0.110989
-0.596105 0.662014 -0.111867
-0.550792 0.662811 -0.112551
-0.507122 0.662595 -0.113054
-0.467452 0.661673 -0.113396
-0.433846 0.660410 -0.113611
-0.408268 0.659176 -0.113731
-0.392612 0.658315 -0.113789
-0.386043 0.657927 -0.113809
VECTORS q1 float
0.603045 -0.605535 -0.519293
0.600261 -0.605319 -0.522758
0.591851 -0.604687 -0.532978
0.577790 -0.603716 -0.549259
0.558132 -0.602548 -0.570460
0.532838 -0.601330 -0.595387
0.501956 -0.600240 -0.622698
0.465653 -0.599475 -0.650997
0.424934 -0.599299 -0.678433
0.379876 -0.599834 -0.704197
0.331387 -0.601231 -0.727121
0.280397 -0.603564 -0.746383
0.227470 -0.606832 -0.761585
0.173213 -0.610991 -0.772455
0.118848 -0.615928 -0.778786
0.064677 -0.621508 -0.780733
0.011478 -0.627558 -0.778485
-0.040151 -0.633895 -0.772376
-0.089611 -0.640337 -0.762849
-0.136132 -0.646696 -0.750501