# vtk DataFile Version 2.0
VTK example
ASCII
DATASET UNSTRUCTURED_GRID
POINTS  128  float
-0.000452 -0.000121 -0.000211
-0.000449 -0.000121 -0.000202
-0.000446 -0.000122 -0.000194
-0.000444 -0.000122 -0.000185
-0.000441 -0.000122 -0.000177
-0.000437 -0.000123 -0.000168
-0.000434 -0.000123 -0.000160
-0.000430 -0.000124 -0.000152
-0.000425 -0.000124 -0.000144
-0.000420 -0.000125 -0.000137
-0.000414 -0.000125 -0.000130
-0.000408 -0.000126 -0.000123
-0.000401 -0.000126 -0.000117
-0.000393 -0.000127 -0.000112
-0.000385 -0.000127 -0.000108
-0.000377 -0.000127 -0.000105
-0.000368 -0.000126 -0.000102
-0.000359 -0.000126 -0.000101
-0.000350 -0.000125 -0.000100
-0.000341 -0.000124 -0.000100
-0.000332 -0.000123 -0.000101
-0.000323 -0.000122 -0.000102
-0.000315 -0.000121 -0.000104
-0.000306 -0.000120 -0.000107
-0.000298 -0.000118 -0.000110
-0.000289 -0.000117 -0.000113
-0.000281 -0.000116 -0.000116
-0.000273 -0.000114 -0.000120
-0.000265 -0.000113 -0.000125
-0.000257 -0.000112 -0.000129
-0.000249 -0.000110 -0.000133
-0.000242 -0.000109 -0.000138
-0.000234 -0.000108 -0.000143
-0.000227 -0.000107 -0.000148
-0.000219 -0.000106 -0.000153
-0.000212 -0.000104 -0.000158
-0.000204 -0.000103 -0.000163
-0.000197 -0.000102 -0.000167
-0.000189 -0.000101 -0.000172
-0.000181 -0.000100 -0.000177
-0.000174 -0.000098 -0.000182
-0.000166 -0.000097 -0.000186
-0.000158 -0.000096 -0.000190
-0.000150 -0.000094 -0.000194
-0.000142 -0.000093 -0.000198
-0.000134 -0.000091 -0.000201
-0.000125 -0.000090 -0.000204
-0.000117 -0.000088 -0.000207
-0.000108 -0.000086 -0.000209
-0.000099 -0.000084 -0.000210
-0.000090 -0.000082 -0.000211
-0.000082 -0.000080 -0.000211
-0.000073 -0.000078 -0.000210
-0.000064 -0.000075 -0.000209
-0.000056 -0.000073 -0.000207
-0.000048 -0.000069 -0.000204
-0.000040 -0.000066 -0.000201
-0.000033 -0.000063 -0.000197
-0.000026 -0.000059 -0.000192
-0.000019 -0.000055 -0.000187
-0.000014 -0.000052 -0.000181
-0.000008 -0.000048 -0.000175
-0.000003 -0.000044 -0.000169
0.000002 -0.000039 -0.000162
0.000006 -0.000035 -0.000155
0.000009 -0.000031 -0.000148
0.000013 -0.000027 -0.000141
0.000015 -0.000023 -0.000133
0.000018 -0.000019 -0.000125
0.000020 -0.000015 -0.000117
0.000022 -0.000011 -0.000109
0.000024 -0.000008 -0.000101
0.000025 -0.000004 -0.000093
0.000026 -0.000001 -0.000085
0.000027 0.000003 -0.000077
0.000028 0.000006 -0.000068
0.000029 0.000010 -0.000060
0.000029 0.000013 -0.000052
0.000030 0.000016 -0.000043
0.000030 0.000020 -0.000035
0.000030 0.000023 -0.000026
0.000031 0.000027 -0.000018
0.000031 0.000030 -0.000010
0.000032 0.000034 -0.000001
0.000032 0.000037 0.000007
0.000033 0.000041 0.000015
0.000034 0.000046 0.000023
0.000035 0.000050 0.000031
0.000037 0.000054 0.000038
0.000039 0.000059 0.000046
0.000041 0.000064 0.000053
0.000044 0.000070 0.000060
0.000047 0.000076 0.000066
0.000051 0.000081 0.000072
0.000056 0.000087 0.000077
0.000061 0.000093 0.000081
0.000066 0.000100 0.000085
0.000073 0.000106 0.000088
0.000079 0.000112 0.000090
0.000086 0.000117 0.000091
0.000093 0.000123 0.000092
0.000100 0.000128 0.000092
0.000108 0.000133 0.000091
0.000115 0.000138 0.000090
0.000123 0.000142 0.000088
0.000131 0.000147 0.000085
0.000138 0.000151 0.000083
0.000146 0.000154 0.000080
0.000154 0.000158 0.000076
0.000161 0.000161 0.000072
0.000169 0.000164 0.000068
0.000176 0.000167 0.000064
0.000184 0.000170 0.000060
0.000191 0.000172 0.000055
0.000198 0.000175 0.000050
0.000205 0.000177 0.000045
0.000213 0.000178 0.000040
0.000220 0.000180 0.000035
0.000227 0.000181 0.000030
0.000234 0.000183 0.000024
0.000242 0.000184 0.000019
0.000249 0.000184 0.000014
0.000256 0.000185 0.000008
0.000264 0.000186 0.000003
0.000271 0.000186 -0.000002
0.000278 0.000186 -0.000007
0.000286 0.000187 -0.000013
0.000293 0.000187 -0.000018
CELLS  127 381
2 0 1 
2 1 2 
2 2 3 
2 3 4 
2 4 5 
2 5 6 
2 6 7 
2 7 8 
2 8 9 
2 9 10 
2 10 11 
2 11 12 
2 12 13 
2 13 14 
2 14 15 
2 15 16 
2 16 17 
2 17 18 
2 18 19 
2 19 20 
2 20 21 
2 21 22 
2 22 23 
2 23 24 
2 24 25 
2 25 26 
2 26 27 
2 27 28 
2 28 29 
2 29 30 
2 30 31 
2 31 32 
2 32 33 
2 33 34 
2 34 35 
2 35 36 
2 36 37 
2 37 38 
2 38 39 
2 39 40 
2 40 41 
2 41 42 
2 42 43 
2 43 44 
2 44 45 
2 45 46 
2 46 47 
2 47 48 
2 48 49 
2 49 50 
2 50 51 
2 51 52 
2 52 53 
2 53 54 
2 54 55 
2 55 56 
2 56 57 
2 57 58 
2 58 59 
2 59 60 
2 60 61 
2 61 62 
2 62 63 
2 63 64 
2 64 65 
2 65 66 
2 66 67 
2 67 68 
2 68 69 
2 69 70 
2 70 71 
2 71 72 
2 72 73 
2 73 74 
2 74 75 
2 75 76 
2 76 77 
2 77 78 
2 78 79 
2 79 80 
2 80 81 
2 81 82 
2 82 83 
2 83 84 
2 84 85 
2 85 86 
2 86 87 
2 87 88 
2 88 89 
2 89 90 
2 90 91 
2 91 92 
2 92 93 
2 93 94 
2 94 95 
2 95 96 
2 96 97 
2 97 98 
2 98 99 
2 99 100 
2 100 101 
2 101 102 
2 102 103 
2 103 104 
2 104 105 
2 105 106 
2 106 107 
2 107 108 
2 108 109 
2 109 110 
2 110 111 
2 111 112 
2 112 113 
2 113 114 
2 114 115 
2 115 116 
2 116 117 
2 117 118 
2 118 119 
2 119 120 
2 120 121 
2 121 122 
2 122 123 
2 123 124 
2 124 125 
2 125 126 
2 126 127 
CELL_TYPES  127
3
3
3
3
3
3
3
3
3
3
3
3
3
3
3
3
3
3
3
3
3
3
3
3
3
3
3
3
3
3
3
3
3
3
3
3
3
3
3
3
3
3
3
3
3
3
3
3
3
3
3
3
3
3
3
3
3
3
3
3
3
3
3
3
3
3
3
3
3
3
3
3
3
3
3
3
3
3
3
3
3
3
3
3
3
3
3
3
3
3
3
3
3
3
3
3
3
3
3
3
3
3
3
3
3
3
3
3
3
3
3
3
3
3
3
3
3
3
3
3
3
3
3
3
3
3
3
POINT_DATA  128
VECTORS Position float
-0.000452 -0.000121 -0.000211
-0.000449 -0.000121 -0.000202
-0.000446 -0.000122 -0.000194
-0.000444 -0.000122 -0.000185
-0.000441 -0.000122 -0.000177
-0.000437 -0.000123 -0.000168
-0.000434 -0.000123 -0.000160
-0.000430 -0.000124 -0.000152
-0.000425 -0.000124 -0.000144
-0.000420 -0.000125 -0.000137
-0.000414 -0.000125 -0.000130
-0.000408 -0.000126 -0.000123
-0.000401 -0.000126 -0.000117
-0.000393 -0.000127 -0.000112
-0.000385 -0.000127 -0.000108
-0.000377 -0.000127 -0.000105
-0.000368 -0.000126 -0.000102
-0.000359 -0.000126 -0.000101
-0.000350 -0.000125 -0.000100
-0.000341 -0.000124 -0.000100
-0.000332 -0.000123 -0.000101
-0.000323 -0.000122 -0.000102
-0.000315 -0.000121 -0.000104
-0.000306 -0.000120 -0.000107
-0.000298 -0.000118 -0.000110
-0.000289 -0.000117 -0.000113
-0.000281 -0.000116 -0.000116
-0.000273 -0.000114 -0.000120
-0.000265 -0.000113 -0.000125
-0.000257 -0.000112 -0.000129
-0.000249 -0.000110 -0.000133
-0.000242 -0.000109 -0.000138
-0.000234 -0.000108 -0.000143
-0.000227 -0.000107 -0.000148
-0.000219 -0.000106 -0.000153
-0.000212 -0.000104 -0.000158
-0.000204 -0.000103 -0.000163
-0.000197 -0.000102 -0.000167
-0.000189 -0.000101 -0.000172
-0.000181 -0.000100 -0.000177
-0.000174 -0.000098 -0.000182
-0.000166 -0.000097 -0.000186
-0.000158 -0.000096 -0.000190
-0.000150 -0.000094 -0.000194
-0.000142 -0.000093 -0.000198
-0.000134 -0.000091 -0.000201
-0.000125 -0.000090 -0.000204
-0.000117 -0.000088 -0.000207
-0.000108 -0.000086 -0.000209
-0.000099 -0.000084 -0.000210
-0.000090 -0.000082 -0.000211
-0.000082 -0.000080 -0.000211
-0.000073 -0.000078 -0.000210
-0.000064 -0.000075 -0.000209
-0.000056 -0.000073 -0.000207
-0.000048 -0.000069 -0.000204
-0.000040 -0.000066 -0.000201
-0.000033 -0.000063 -0.000197
-0.000026 -0.000059 -0.000192
-0.000019 -0.000055 -0.000187
-0.000014 -0.000052 -0.000181
-0.000008 -0.000048 -0.000175
-0.000003 -0.000044 -0.000169
0.000002 -0.000039 -0.000162
0.000006 -0.000035 -0.000155
0.000009 -0.000031 -0.000148
0.000013 -0.000027 -0.000141
0.000015 -0.000023 -0.000133
0.000018 -0.000019 -0.000125
0.000020 -0.000015 -0.000117
0.000022 -0.000011 -0.000109
0.000024 -0.000008 -0.000101
0.000025 -0.000004 -0.000093
0.000026 -0.000001 -0.000085
0.000027 0.000003 -0.000077
0.000028 0.000006 -0.000068
0.000029 0.000010 -0.000060
0.000029 0.000013 -0.000052
0.000030 0.000016 -0.000043
0.000030 0.000020 -0.000035
0.000030 0.000023 -0.000026
0.000031 0.000027 -0.000018
0.000031 0.000030 -0.000010
0.000032 0.000034 -0.000001
0.000032 0.000037 0.000007
0.000033 0.000041 0.000015
0.000034 0.000046 0.000023
0.000035 0.000050 0.000031
0.000037 0.000054 0.000038
0.000039 0.000059 0.000046
0.000041 0.000064 0.000053
0.000044 0.000070 0.000060
0.000047 0.000076 0.000066
0.000051 0.000081 0.000072
0.000056 0.000087 0.000077
0.000061 0.000093 0.000081
0.000066 0.000100 0.000085
0.000073 0.000106 0.000088
0.000079 0.000112 0.000090
0.000086 0.000117 0.000091
0.000093 0.000123 0.000092
0.000100 0.000128 0.000092
0.000108 0.000133 0.000091
0.000115 0.000138 0.000090
0.000123 0.000142 0.000088
0.000131 0.000147 0.000085
0.000138 0.000151 0.000083
0.000146 0.000154 0.000080
0.000154 0.000158 0.000076
0.000161 0.000161 0.000072
0.000169 0.000164 0.000068
0.000176 0.000167 0.000064
0.000184 0.000170 0.000060
0.000191 0.000172 0.000055
0.000198 0.000175 0.000050
0.000205 0.000177 0.000045
0.000213 0.000178 0.000040
0.000220 0.000180 0.000035
0.000227 0.000181 0.000030
0.000234 0.000183 0.000024
0.000242 0.000184 0.000019
0.000249 0.000184 0.000014
0.000256 0.000185 0.000008
0.000264 0.000186 0.000003
0.000271 0.000186 -0.000002
0.000278 0.000186 -0.000007
0.000286 0.000187 -0.000013
0.000293 0.000187 -0.000018
VECTORS Rotation float
0.692598 -0.025402 -0.291878
0.692427 -0.026536 -0.295774
0.691890 -0.029827 -0.307615
0.690922 -0.034907 -0.327652
0.689422 -0.041182 -0.356187
0.687265 -0.047964 -0.393873
0.684330 -0.054449 -0.441413
0.680536 -0.059753 -0.499426
0.675952 -0.062878 -0.567168
0.670699 -0.062989 -0.645303
0.665143 -0.059328 -0.732674
0.659817 -0.051407 -0.827622
0.655333 -0.039040 -0.928684
0.652339 -0.022454 -1.033895
0.651403 -0.002526 -1.139836
0.652821 0.019781 -1.244837
0.656624 0.043082 -1.346450
0.662559 0.066009 -1.442945
0.670172 0.087327 -1.533112
0.678884 0.106014 -1.616031
0.688174 0.121511 -1.691847
0.697503 0.133415 -1.760172
0.706490 0.141754 -1.821388
0.714884 0.146816 -1.876062
0.722507 0.149046 -1.924569
0.729300 0.149018 -1.967522
0.735230 0.147336 -2.005254
0.740309 0.144597 -2.038063
0.744604 0.141329 -2.066426
0.748170 0.137999 -2.090577
0.751061 0.134996 -2.110709
0.753340 0.132602 -2.127079
0.755039 0.131033 -2.139721
0.756178 0.130400 -2.148668
0.756738 0.130730 -2.153712
0.756715 0.131951 -2.154856
0.756077 0.133883 -2.151988
0.754787 0.136359 -2.144993
0.752819 0.139140 -2.133916
0.750126 0.142098 -2.118590
0.746680 0.145139 -2.099048
0.742440 0.148303 -2.075178
0.737348 0.151758 -2.046779
0.731288 0.155831 -2.013245
0.724198 0.160871 -1.974571
0.715900 0.167366 -1.930080
0.706259 0.175732 -1.879709
0.695081 0.186366 -1.823311
0.682089 0.199627 -1.760574
0.667124 0.215571 -1.692142
0.649955 0.234188 -1.618360
0.630408 0.255243 -1.539865
0.608418 0.278264 -1.457608
0.584013 0.302627 -1.372568
0.557338 0.327593 -1.285768
0.528621 0.352402 -1.198107
0.498271 0.376247 -1.110655
0.466746 0.398418 -1.024294
0.434554 0.418306 -0.939795
0.402220 0.435416 -0.857820
0.370277 0.449386 -0.778963
0.339244 0.459990 -0.703755
0.309318 0.467209 -0.632069
0.281191 0.471039 -0.564871
0.254648 0.471714 -0.501323
0.230606 0.469529 -0.442995
0.208454 0.464821 -0.388437
0.188405 0.458006 -0.337945
0.170868 0.449672 -0.292299
0.155636 0.440271 -0.251102
0.142247 0.430087 -0.213468
0.131109 0.419861 -0.180336
0.121747 0.409816 -0.150866
0.114087 0.400383 -0.125053
0.108045 0.391975 -0.102885
0.103658 0.385083 -0.084603
0.100611 0.379907 -0.069754
0.098945 0.376867 -0.058553
0.098607 0.376273 -0.051014
0.099568 0.378403 -0.047162
0.101836 0.383513 -0.047053
0.105458 0.391918 -0.050823
0.110592 0.403622 -0.058590
0.117505 0.419086 -0.070902
0.126565 0.438266 -0.088185
0.138246 0.460946 -0.110974
0.153532 0.487587 -0.140861
0.173338 0.517607 -0.178816
0.198947 0.550488 -0.226337
0.231868 0.585394 -0.285070
0.273723 0.621083 -0.356638
0.326033 0.655855 -0.442407
0.389122 0.687220 -0.541935
0.464607 0.713505 -0.657317
0.549365 0.731653 -0.783794
0.641253 0.740042 -0.919046
0.734707 0.737678 -1.056170
0.825984 0.724844 -1.191208
0.909849 0.703151 -1.317600
0.985572 0.674151 -1.435083
1.050074 0.640986 -1.538896
1.104338 0.605660 -1.630098
1.149180 0.570150 -1.709146
1.186239 0.535495 -1.777887
1.217003 0.502256 -1.838076
1.242433 0.471033 -1.890594
1.263626 0.441747 -1.936842
1.281414 0.414127 -1.977925
1.296420 0.387775 -2.014693
1.309096 0.362237 -2.047790
1.319701 0.337248 -2.077447
1.328505 0.312378 -2.104043
1.335621 0.287584 -2.127504
1.341195 0.262737 -2.147869
1.345357 0.237828 -2.165088
1.348231 0.213025 -2.179027
1.349971 0.188520 -2.189622
1.350759 0.164609 -2.196880
1.350800 0.141611 -2.200950
1.350311 0.119872 -2.202143
1.349498 0.099790 -2.200926
1.348544 0.081666 -2.197902
1.347591 0.065867 -2.193760
1.346738 0.052598 -2.189170
1.346043 0.042116 -2.184797
1.345539 0.034516 -2.181189
1.345235 0.029945 -2.178832
1.345134 0.028412 -2.178009
VECTORS ControlForce float
0.000000 0.000000 0.000000
0.000045 0.000323 -0.000027
0.000091 0.000611 -0.000043
0.000128 0.000836 -0.000038
0.000150 0.000986 -0.000029
0.000131 0.001046 0.000005
0.000056 0.001009 0.000071
-0.000077 0.000873 0.000148
-0.000261 0.000636 0.000209
-0.000467 0.000311 0.000240
-0.000654 -0.000078 0.000222
-0.000761 -0.000478 0.000135
-0.000754 -0.000835 -0.000010
-0.000644 -0.001108 -0.000185
-0.000426 -0.001242 -0.000377
-0.000147 -0.001220 -0.000550
0.000140 -0.001051 -0.000678
0.000397 -0.000759 -0.000747
0.000573 -0.000406 -0.000753
0.000654 -0.000044 -0.000708
0.000626 0.000266 -0.000627
0.000516 0.000499 -0.000535
0.000369 0.000651 -0.000446
0.000213 0.000718 -0.000368
0.000075 0.000712 -0.000304
-0.000006 0.000670 -0.000246
-0.000040 0.000607 -0.000196
-0.000054 0.000523 -0.000158
-0.000061 0.000428 -0.000131
-0.000070 0.000326 -0.000115
-0.000088 0.000211 -0.000110
-0.000103 0.000089 -0.000109
-0.000093 -0.000022 -0.000101
-0.000047 -0.000106 -0.000082
0.000020 -0.000158 -0.000063
0.000074 -0.000185 -0.000045
0.000113 -0.000175 -0.000028
0.000112 -0.000138 -0.000005
0.000066 -0.000082 0.000025
-0.000038 -0.000029 0.000061
-0.000196 0.000006 0.000093
-0.000366 0.000039 0.000125
-0.000509 0.000083 0.000162
-0.000588 0.000148 0.000213
-0.000607 0.000217 0.000265
-0.000558 0.000287 0.000315
-0.000427 0.000366 0.000359
-0.000218 0.000448 0.000386
0.000025 0.000503 0.000389
0.000278 0.000519 0.000360
0.000494 0.000474 0.000301
0.000650 0.000373 0.000220
0.000725 0.000224 0.000128
0.000748 0.000069 0.000033
0.000725 -0.000076 -0.000060
0.000654 -0.000206 -0.000142
0.000522 -0.000331 -0.000202
0.000374 -0.000420 -0.000242
0.000221 -0.000468 -0.000264
0.000078 -0.000472 -0.000269
-0.000046 -0.000434 -0.000262
-0.000138 -0.000358 -0.000249
-0.000196 -0.000259 -0.000231
-0.000220 -0.000148 -0.000219
-0.000210 -0.000032 -0.000217
-0.000193 0.000062 -0.000218
-0.000173 0.000130 -0.000206
-0.000145 0.000187 -0.000195
-0.000117 0.000231 -0.000200
-0.000095 0.000253 -0.000204
-0.000074 0.000264 -0.000198
-0.000050 0.000264 -0.000183
-0.000018 0.000272 -0.000162
0.000017 0.000289 -0.000138
0.000045 0.000301 -0.000109
0.000059 0.000301 -0.000081
0.000056 0.000285 -0.000035
0.000045 0.000261 0.000012
0.000035 0.000239 0.000044
0.000039 0.000223 0.000054
0.000069 0.000216 0.000052
0.000132 0.000203 0.000064
0.000231 0.000189 0.000079
0.000357 0.000170 0.000113
0.000492 0.000146 0.000161
0.000611 0.000111 0.000223
0.000681 0.000068 0.000306
0.000678 0.000005 0.000411
0.000588 -0.000066 0.000511
0.000409 -0.000157 0.000599
0.000158 -0.000259 0.000654
-0.000141 -0.000361 0.000654
-0.000455 -0.000451 0.000594
-0.000743 -0.000525 0.000490
-0.000972 -0.000569 0.000338
-0.001103 -0.000569 0.000152
-0.001115 -0.000519 -0.000047
-0.000991 -0.000391 -0.000233
-0.000766 -0.000227 -0.000371
-0.000493 -0.000067 -0.000444
-0.000202 0.000086 -0.000470
0.000091 0.000244 -0.000461
0.000365 0.000391 -0.000421
0.000578 0.000478 -0.000351
0.000713 0.000490 -0.000261
0.000772 0.000436 -0.000172
0.000760 0.000329 -0.000099
0.000696 0.000201 -0.000043
0.000598 0.000089 0.000000
0.000482 0.000010 0.000035
0.000347 -0.000054 0.000056
0.000205 -0.000112 0.000061
0.000068 -0.000160 0.000048
-0.000047 -0.000166 0.000026
-0.000144 -0.000143 -0.000004
-0.000214 -0.000065 -0.000029
-0.000255 0.000068 -0.000046
-0.000268 0.000237 -0.000054
-0.000258 0.000413 -0.000057
-0.000223 0.000579 -0.000054
-0.000175 0.000692 -0.000053
-0.000125 0.000721 -0.000058
-0.000076 0.000687 -0.000063
-0.000030 0.000617 -0.000056
0.000005 0.000521 -0.000040
0.000023 0.000390 -0.000021
0.000018 0.000209 -0.000010
0.000000 -0.000000 -0.000000
VECTORS ControlTorque float
-0.000001 -0.000003 0.000000
-0.000001 -0.000003 0.000000
-0.000001 -0.000003 0.000000
-0.000001 -0.000003 0.000000
-0.000000 -0.000004 -0.000000
-0.000000 -0.000004 -0.000000
0.000000 -0.000005 -0.000000
0.000001 -0.000003 -0.000001
0.000001 -0.000005 -0.000001
0.000001 -0.000004 -0.000001
0.000001 -0.000003 -0.000001
0.000001 -0.000003 -0.000001
0.000001 -0.000002 -0.000001
0.000001 0.000000 -0.000001
0.000000 -0.000000 -0.000001
0.000000 0.000002 -0.000000
-0.000000 0.000002 -0.000000
-0.000000 0.000003 0.000000
-0.000000 0.000003 0.000001
-0.000000 0.000003 0.000001
-0.000000 0.000003 0.000001
-0.000000 0.000003 0.000001
-0.000000 0.000003 0.000001
-0.000000 0.000003 0.000001
-0.000000 0.000002 0.000001
-0.000000 0.000002 0.000001
-0.000000 0.000002 0.000000
-0.000000 0.000002 0.000000
-0.000000 0.000002 0.000000
-0.000000 0.000002 -0.000000
-0.000000 0.000001 -0.000000
-0.000000 0.000002 -0.000000
-0.000000 0.000001 -0.000000
-0.000000 0.000002 -0.000000
-0.000000 0.000002 -0.000000
-0.000000 0.000002 -0.000000
-0.000000 0.000002 -0.000000
-0.000000 0.000002 0.000000
-0.000000 0.000002 0.000000
-0.000000 0.000002 0.000000
-0.000000 0.000002 0.000000
-0.000000 0.000002 0.000000
-0.000001 0.000002 -0.000000
-0.000000 0.000002 -0.000000
-0.000001 0.000003 -0.000001
-0.000001 0.000002 -0.000001
-0.000001 0.000002 -0.000001
-0.000001 0.000003 -0.000001
-0.000001 0.000002 -0.000001
-0.000001 0.000002 -0.000002
-0.000000 0.000002 -0.000002
-0.000000 0.000001 -0.000001
0.000000 0.000001 -0.000001
0.000000 0.000000 -0.000001
0.000000 -0.000000 -0.000001
0.000001 -0.000001 -0.000000
0.000001 -0.000001 -0.000000
0.000001 -0.000001 0.000000
0.000000 -0.000001 0.000000
0.000000 -0.000001 0.000001
0.000000 -0.000002 0.000001
-0.000000 -0.000001 0.000001
0.000000 -0.000002 0.000001
-0.000000 -0.000000 0.000000
0.000000 -0.000003 0.000002
-0.000000 -0.000000 0.000000
-0.000000 -0.000001 0.000001
0.000000 -0.000002 0.000001
0.000000 -0.000002 0.000001
-0.000000 -0.000000 0.000000
0.000001 -0.000002 0.000001
0.000000 -0.000001 0.000000
0.000000 -0.000001 0.000000
0.000000 -0.000001 0.000000
0.000001 -0.000002 0.000001
0.000001 -0.000001 0.000000
0.000001 -0.000001 0.000000
0.000001 -0.000001 0.000000
0.000001 -0.000001 0.000000
0.000001 -0.000001 0.000000
0.000002 -0.000001 0.000000
0.000001 -0.000001 0.000000
0.000002 -0.000002 0.000001
0.000002 -0.000002 0.000001
0.000001 -0.000001 0.000001
0.000002 -0.000002 0.000001
0.000002 -0.000002 0.000001
0.000002 -0.000003 0.000001
0.000002 -0.000003 0.000001
0.000002 -0.000003 0.000001
0.000002 -0.000003 0.000002
0.000000 -0.000001 0.000001
0.000003 -0.000004 0.000002
-0.000000 -0.000000 0.000001
0.000001 -0.000002 0.000002
-0.000001 0.000001 0.000000
0.000000 -0.000001 0.000001
-0.000002 0.000002 -0.000001
0.000001 -0.000001 0.000001
-0.000002 0.000003 -0.000002
-0.000001 0.000002 -0.000001
-0.000002 0.000003 -0.000001
-0.000001 0.000002 -0.000001
-0.000001 0.000002 -0.000001
-0.000001 0.000002 -0.000001
-0.000001 0.000002 -0.000001
-0.000001 0.000001 -0.000001
-0.000001 0.000001 -0.000000
-0.000001 0.000001 -0.000000
-0.000001 0.000001 -0.000000
-0.000000 0.000001 0.000000
-0.000000 0.000001 0.000000
-0.000000 0.000001 0.000000
-0.000000 0.000001 0.000000
-0.000000 0.000001 0.000000
-0.000000 0.000001 0.000000
-0.000000 0.000001 -0.000000
-0.000000 0.000001 -0.000000
-0.000000 0.000001 -0.000000
-0.000001 0.000001 -0.000001
-0.000001 0.000001 -0.000001
-0.000001 0.000000 -0.000001
-0.000001 0.000000 -0.000001
-0.000001 -0.000000 -0.000001
-0.000001 -0.000000 -0.000001
-0.000001 -0.000001 -0.000001
-0.000001 -0.000001 -0.000001
-0.000001 -0.000001 -0.000001
VECTORS Curvature float
-100.081370 234.538839 4.466377
-333.414395 760.744842 14.396949
-768.466661 1678.683459 30.261482
-1209.645457 2464.276977 41.757461
-1744.506906 3267.422836 50.540375
-2385.003205 4080.538425 55.189607
-3179.491418 4958.441525 55.408926
-3990.330292 5695.921437 50.488617
-4867.367705 6375.506445 41.342077
-5848.358739 7073.460220 28.090350
-6713.625685 7531.843178 12.178252
-7504.366111 7851.171052 -5.271063
-8262.828322 8102.331120 -22.944729
-8728.396882 8073.760309 -38.220406
-8943.222654 7852.837873 -52.422685
-8985.486087 7556.942238 -62.645385
-8725.284663 7100.794304 -70.009287
-8286.966369 6611.762956 -74.115795
-7650.044123 6076.025736 -75.012528
-6951.016485 5593.106678 -73.904225
-6202.021520 5148.174674 -70.165634
-5392.649122 4700.933235 -65.520026
-4662.832791 4333.245198 -59.944075
-3983.354805 3988.177032 -54.000611
-3379.621211 3665.612308 -48.064498
-2861.528980 3360.043148 -42.225935
-2391.819232 3023.599105 -36.570835
-1998.325173 2691.912034 -30.996443
-1672.032248 2364.043438 -25.454145
-1380.965895 2009.417500 -19.792105
-1137.191902 1659.989315 -13.868138
-922.603358 1307.526405 -7.569042
-724.023601 948.642321 -0.788353
-515.412024 570.854163 6.648685
-296.275961 184.519975 14.757948
-67.202679 -186.735651 23.717343
191.191950 -562.702035 33.402439
461.985775 -919.951631 43.872367
753.183656 -1269.662677 54.876842
1059.352736 -1625.034062 66.213705
1361.142518 -1972.493479 77.515310
1652.073249 -2331.218013 88.386201
1967.464354 -2774.890469 98.340587
2260.494916 -3260.851710 106.645286
2526.759582 -3803.343571 112.906455
2784.224268 -4441.725664 116.280085
2965.948479 -5076.896232 116.204177
3133.814845 -5810.549123 112.341697
3235.502123 -6541.852419 103.585461
3246.842465 -7203.085279 90.287797
3210.490028 -7851.122360 72.000418
3101.670902 -8395.354508 48.949328
2932.056716 -8808.921355 21.860588
2719.826073 -9078.634851 -8.532382
2489.171824 -9218.581111 -40.870042
2254.238174 -9217.956921 -74.251493
2028.352000 -9071.791210 -107.031275
1833.207021 -8824.518331 -138.229843
1677.895580 -8489.931906 -166.809129
1570.079474 -8096.469707 -192.044838
1500.523547 -7618.368718 -213.565517
1493.275305 -7201.154640 -230.896339
1499.709439 -6694.697679 -244.784209
1555.150079 -6270.151116 -254.781758
1593.531213 -5775.903565 -262.016747
1629.552379 -5265.626000 -266.852472
1720.490335 -4995.580659 -270.042256
1730.065360 -4539.827603 -271.861254
1683.904123 -4032.301072 -273.275575
1691.032119 -3729.866888 -274.756063
1630.279161 -3362.646518 -275.510113
1514.987998 -2951.896779 -276.988136
1420.483100 -2659.169482 -277.900586
1273.941226 -2330.280495 -278.577850
1066.615359 -1955.447188 -278.444605
840.273989 -1609.061459 -277.515917
597.139637 -1294.964182 -275.093234
299.595111 -936.609784 -271.251495
-22.734433 -590.055918 -265.719643
-368.148634 -242.673253 -258.455779
-763.147685 111.112892 -249.648770
-1159.728672 463.075340 -239.268881
-1589.563326 836.585748 -227.880277
-2096.205701 1263.698217 -215.558135
-2523.891560 1669.418118 -202.479456
-3037.042109 2174.860873 -190.100113
-3619.194372 2786.188929 -177.330173
-4135.463899 3420.236947 -165.846344
-4674.668116 4145.450653 -155.418087
-5186.400442 4915.944560 -146.117865
-5716.142768 5773.337374 -138.499019
-6041.725653 6451.631321 -129.779348
-6464.411795 7283.879550 -125.981947
-6799.773554 7988.850191 -117.661504
-6910.285408 8445.989637 -114.673836
-6946.729005 8743.282016 -111.790000
-6857.036900 8864.826194 -111.507007
-6632.659990 8730.499360 -114.284390
-6406.547907 8578.359223 -113.691351
-6115.761093 8256.549765 -117.753614
-5568.162145 7573.316911 -115.915037
-5117.447386 6974.461011 -114.944700
-4628.380568 6305.367998 -111.195456
-4259.510408 5782.706356 -106.721544
-3884.010301 5245.560178 -101.954695
-3506.524311 4717.485256 -95.246681
-3193.041528 4300.184292 -87.566499
-2908.039835 3959.980673 -78.485737
-2658.608211 3718.414303 -67.933052
-2404.060354 3522.655432 -56.166982
-2154.555203 3389.972924 -42.725536
-1900.119617 3297.036479 -28.448289
-1615.905467 3198.959011 -13.057346
-1328.078361 3132.829867 2.735485
-1017.847244 3053.213704 18.415542
-690.454649 2952.083970 33.426675
-357.230667 2826.722191 47.039560
-31.732845 2666.834239 58.615291
266.889017 2480.061091 67.515353
517.017536 2256.297685 73.234114
703.645964 2010.533143 75.396723
810.590656 1741.839411 73.825323
837.445035 1459.650794 68.494321
785.228505 1169.986716 59.691215
660.664557 873.970717 47.643201
483.955285 587.843534 33.641668
229.558324 265.496223 15.775644
75.312859 84.776957 4.938234
VECTORS LocalRotation float
0.851772 -0.257772 0.035006
0.849805 -0.253255 0.035091
0.844836 -0.242255 0.035293
0.835917 -0.223575 0.035617
0.822515 -0.197572 0.036036
0.803757 -0.164194 0.036516
0.778550 -0.123248 0.037017
0.746269 -0.075278 0.037494
0.706026 -0.020434 0.037911
0.657577 0.040372 0.038225
0.600767 0.106423 0.038407
0.536244 0.176233 0.038439
0.464776 0.248545 0.038311
0.388085 0.321557 0.038035
0.307940 0.393788 0.037624
0.226815 0.463515 0.037103
0.146643 0.529867 0.036502
0.069612 0.591957 0.035850
-0.002537 0.649396 0.035175
-0.068754 0.702317 0.034499
-0.128188 0.750853 0.033848
-0.180695 0.795455 0.033234
-0.226281 0.836411 0.032665
-0.265434 0.874093 0.032149
-0.298800 0.908777 0.031687
-0.327013 0.940537 0.031278
-0.350754 0.969385 0.030922
-0.370639 0.995274 0.030616
-0.387240 1.018142 0.030361
-0.401063 1.037943 0.030156
-0.412500 1.054609 0.030003
-0.421839 1.068064 0.029906
-0.429302 1.078289 0.029868
-0.434887 1.085136 0.029895
-0.438578 1.088572 0.029992
-0.440215 1.088562 0.030165
-0.439651 1.085151 0.030425
-0.436702 1.078458 0.030774
-0.431184 1.068515 0.031222
-0.422999 1.055444 0.031769
-0.412055 1.039178 0.032419
-0.398403 1.019678 0.033171
-0.381955 0.996475 0.034019
-0.362869 0.969228 0.034945
-0.341161 0.937196 0.035940
-0.317166 0.899945 0.036976
-0.291139 0.856860 0.038028
-0.263469 0.807472 0.039065
-0.234681 0.751642 0.040041
-0.205306 0.689357 0.040919
-0.176043 0.621134 0.041655
-0.147467 0.547585 0.042202
-0.120154 0.469706 0.042523
-0.094568 0.388728 0.042583
-0.070977 0.305863 0.042359
-0.049511 0.222429 0.041838
-0.030121 0.139622 0.041017
-0.012634 0.058578 0.039907
0.003265 -0.019828 0.038525
0.017971 -0.094923 0.036901
0.031877 -0.166093 0.035064
0.045456 -0.233312 0.033048
0.058971 -0.296060 0.030900
0.072847 -0.354950 0.028631
0.087022 -0.409179 0.026304
0.101746 -0.459620 0.023888
0.116887 -0.505997 0.021462
0.132390 -0.548839 0.019027
0.147896 -0.587771 0.016551
0.163296 -0.623191 0.014050
0.178232 -0.655086 0.011576
0.192571 -0.683875 0.009057
0.205860 -0.709275 0.006545
0.218007 -0.731769 0.004036
0.228542 -0.751058 0.001529
0.237232 -0.767303 -0.001005
0.243710 -0.780392 -0.003495
0.247761 -0.790471 -0.005963
0.249014 -0.797383 -0.008394
0.247241 -0.801161 -0.010772
0.242099 -0.801759 -0.013082
0.233451 -0.799177 -0.015281
0.220915 -0.793250 -0.017411
0.204293 -0.783779 -0.019410
0.183442 -0.770541 -0.021297
0.158025 -0.752970 -0.023091
0.127954 -0.730558 -0.024751
0.092900 -0.702502 -0.026303
0.053052 -0.668284 -0.027756
0.008449 -0.627297 -0.029120
-0.040847 -0.578965 -0.030407
-0.093960 -0.523743 -0.031618
-0.151041 -0.461050 -0.032786
-0.210677 -0.392384 -0.033881
-0.272846 -0.317859 -0.034935
-0.335401 -0.240262 -0.035957
-0.398175 -0.160187 -0.036973
-0.459200 -0.080589 -0.037994
-0.518632 -0.001696 -0.039033
-0.574754 0.073754 -0.040070
-0.627660 0.145433 -0.041128
-0.676056 0.211321 -0.042174
-0.720395 0.271739 -0.043203
-0.760748 0.326622 -0.044192
-0.797474 0.376357 -0.045133
-0.830891 0.421406 -0.046025
-0.861227 0.462239 -0.046853
-0.888880 0.499678 -0.047605
-0.914114 0.534484 -0.048269
-0.937019 0.567245 -0.048831
-0.957689 0.598589 -0.049279
-0.976012 0.628807 -0.049601
-0.991941 0.658237 -0.049789
-1.005284 0.686934 -0.049835
-1.015903 0.714936 -0.049740
-1.023639 0.742130 -0.049505
-1.028381 0.768287 -0.049141
-1.030142 0.793160 -0.048662
-1.029078 0.816463 -0.048091
-1.025530 0.837899 -0.047454
-1.019999 0.857232 -0.046781
-1.013147 0.874212 -0.046106
-1.005676 0.888724 -0.045460
-0.998336 0.900620 -0.044881
-0.991783 0.909883 -0.044394
-0.986612 0.916487 -0.044027
-0.983374 0.920359 -0.043803
-0.981997 0.921942 -0.043709
VECTORS q1 float
0.732373 -0.638332 -0.236983
0.731339 -0.638182 -0.240555
0.728133 -0.637710 -0.251292
0.722503 -0.636860 -0.269071
0.714050 -0.635552 -0.293609
0.702123 -0.633696 -0.324735
0.685875 -0.631217 -0.362132
0.664307 -0.628086 -0.405220
0.636846 -0.624404 -0.452269
0.602331 -0.620301 -0.502418
0.560443 -0.616086 -0.553482
0.511415 -0.612163 -0.603085
0.455777 -0.608959 -0.649181
0.394740 -0.606894 -0.689826
0.330812 -0.606301 -0.723162
0.265755 -0.607311 -0.748697
0.201841 -0.609880 -0.766360
0.140770 -0.613797 -0.776812
0.083660 -0.618754 -0.781118
0.031183 -0.624400 -0.780482
-0.016851 -0.630445 -0.776051