# vtk DataFile Version 2.0
VTK example
ASCII
DATASET UNSTRUCTURED_GRID
POINTS  128  float
-0.000234 -0.000114 -0.000149
-0.000227 -0.000114 -0.000155
-0.000220 -0.000113 -0.000160
-0.000213 -0.000113 -0.000166
-0.000206 -0.000113 -0.000172
-0.000199 -0.000112 -0.000177
-0.000192 -0.000112 -0.000182
-0.000184 -0.000112 -0.000187
-0.000176 -0.000111 -0.000192
-0.000169 -0.000111 -0.000197
-0.000161 -0.000110 -0.000201
-0.000152 -0.000109 -0.000205
-0.000144 -0.000109 -0.000208
-0.000136 -0.000107 -0.000211
-0.000127 -0.000106 -0.000214
-0.000118 -0.000105 -0.000216
-0.000110 -0.000103 -0.000217
-0.000101 -0.000101 -0.000218
-0.000092 -0.000098 -0.000218
-0.000083 -0.000096 -0.000218
-0.000075 -0.000093 -0.000217
-0.000067 -0.000090 -0.000215
-0.000059 -0.000086 -0.000212
-0.000051 -0.000082 -0.000209
-0.000044 -0.000078 -0.000205
-0.000037 -0.000074 -0.000201
-0.000031 -0.000070 -0.000196
-0.000026 -0.000065 -0.000190
-0.000021 -0.000061 -0.000184
-0.000017 -0.000056 -0.000177
-0.000013 -0.000052 -0.000170
-0.000010 -0.000048 -0.000163
-0.000007 -0.000043 -0.000155
-0.000004 -0.000039 -0.000148
-0.000002 -0.000035 -0.000140
-0.000001 -0.000031 -0.000132
0.000001 -0.000027 -0.000124
0.000002 -0.000023 -0.000116
0.000003 -0.000020 -0.000108
0.000004 -0.000016 -0.000100
0.000005 -0.000012 -0.000091
0.000006 -0.000008 -0.000083
0.000007 -0.000004 -0.000075
0.000007 -0.000001 -0.000067
0.000008 0.000003 -0.000059
0.000009 0.000007 -0.000051
0.000010 0.000011 -0.000043
0.000011 0.000015 -0.000034
0.000012 0.000020 -0.000027
0.000013 0.000024 -0.000019
0.000014 0.000028 -0.000011
0.000015 0.000033 -0.000003
0.000017 0.000037 0.000005
0.000018 0.000042 0.000012
0.000020 0.000047 0.000020
0.000022 0.000052 0.000027
0.000025 0.000057 0.000034
0.000027 0.000062 0.000041
0.000030 0.000067 0.000048
0.000034 0.000073 0.000054
0.000037 0.000079 0.000060
0.000042 0.000085 0.000065
0.000046 0.000091 0.000070
0.000051 0.000097 0.000075
0.000056 0.000103 0.000079
0.000062 0.000109 0.000082
0.000068 0.000115 0.000085
0.000075 0.000121 0.000087
0.000081 0.000127 0.000088
0.000088 0.000133 0.000088
0.000095 0.000139 0.000088
0.000103 0.000144 0.000088
0.000110 0.000149 0.000086
0.000118 0.000154 0.000085
0.000125 0.000158 0.000082
0.000133 0.000162 0.000080
0.000140 0.000166 0.000077
0.000148 0.000170 0.000073
0.000156 0.000173 0.000070
0.000163 0.000176 0.000066
0.000171 0.000178 0.000062
0.000179 0.000181 0.000058
0.000187 0.000183 0.000054
0.000195 0.000184 0.000050
0.000203 0.000186 0.000046
0.000211 0.000187 0.000041
0.000219 0.000187 0.000037
0.000227 0.000188 0.000033
0.000235 0.000188 0.000030
0.000243 0.000188 0.000026
0.000252 0.000189 0.000023
0.000260 0.000188 0.000019
0.000269 0.000188 0.000016
0.000277 0.000188 0.000014
0.000286 0.000188 0.000012
0.000295 0.000188 0.000010
0.000304 0.000187 0.000008
0.000313 0.000187 0.000007
0.000322 0.000187 0.000006
0.000331 0.000187 0.000006
0.000340 0.000188 0.000006
0.000349 0.000188 0.000007
0.000358 0.000189 0.000008
0.000367 0.000191 0.000010
0.000375 0.000192 0.000012
0.000384 0.000194 0.000015
0.000391 0.000197 0.000019
0.000399 0.000200 0.000023
0.000406 0.000204 0.000027
0.000413 0.000208 0.000032
0.000418 0.000212 0.000037
0.000424 0.000217 0.000042
0.000428 0.000223 0.000048
0.000432 0.000228 0.000054
0.000435 0.000234 0.000060
0.000438 0.000240 0.000067
0.000440 0.000246 0.000073
0.000441 0.000252 0.000080
0.000442 0.000258 0.000087
0.000442 0.000264 0.000094
0.000442 0.000269 0.000101
0.000442 0.000275 0.000108
0.000441 0.000280 0.000115
0.000440 0.000285 0.000123
0.000438 0.000290 0.000130
0.000437 0.000295 0.000138
0.000435 0.000300 0.000145
0.000434 0.000304 0.000153
CELLS  127 381
2 0 1 
2 1 2 
2 2 3 
2 3 4 
2 4 5 
2 5 6 
2 6 7 
2 7 8 
2 8 9 
2 9 10 
2 10 11 
2 11 12 
2 12 13 
2 13 14 
2 14 15 
2 15 16 
2 16 17 
2 17 18 
2 18 19 
2 19 20 
2 20 21 
2 21 22 
2 22 23 
2 23 24 
2 24 25 
2 25 26 
2 26 27 
2 27 28 
2 28 29 
2 29 30 
2 30 31 
2 31 32 
2 32 33 
2 33 34 
2 34 35 
2 35 36 
2 36 37 
2 37 38 
2 38 39 
2 39 40 
2 40 41 
2 41 42 
2 42 43 
2 43 44 
2 44 45 
2 45 46 
2 46 47 
2 47 48 
2 48 49 
2 49 50 
2 50 51 
2 51 52 
2 52 53 
2 53 54 
2 54 55 
2 55 56 
2 56 57 
2 57 58 
2 58 59 
2 59 60 
2 60 61 
2 61 62 
2 62 63 
2 63 64 
2 64 65 
2 65 66 
2 66 67 
2 67 68 
2 68 69 
2 69 70 
2 70 71 
2 71 72 
2 72 73 
2 73 74 
2 74 75 
2 75 76 
2 76 77 
2 77 78 
2 78 79 
2 79 80 
2 80 81 
2 81 82 
2 82 83 
2 83 84 
2 84 85 
2 85 86 
2 86 87 
2 87 88 
2 88 89 
2 89 90 
2 90 91 
2 91 92 
2 92 93 
2 93 94 
2 94 95 
2 95 96 
2 96 97 
2 97 98 
2 98 99 
2 99 100 
2 100 101 
2 101 102 
2 102 103 
2 103 104 
2 104 105 
2 105 106 
2 106 107 
2 107 108 
2 108 109 
2 109 110 
2 110 111 
2 111 112 
2 112 113 
2 113 114 
2 114 115 
2 115 116 
2 116 117 
2 117 118 
2 118 119 
2 119 120 
2 120 121 
2 121 122 
2 122 123 
2 123 124 
2 124 125 
2 125 126 
2 126 127 
CELL_TYPES  127
3
3
3
3
3
3
3
3
3
3
3
3
3
3
3
3
3
3
3
3
3
3
3
3
3
3
3
3
3
3
3
3
3
3
3
3
3
3
3
3
3
3
3
3
3
3
3
3
3
3
3
3
3
3
3
3
3
3
3
3
3
3
3
3
3
3
3
3
3
3
3
3
3
3
3
3
3
3
3
3
3
3
3
3
3
3
3
3
3
3
3
3
3
3
3
3
3
3
3
3
3
3
3
3
3
3
3
3
3
3
3
3
3
3
3
3
3
3
3
3
3
3
3
3
3
3
3
POINT_DATA  128
VECTORS Position float
-0.000234 -0.000114 -0.000149
-0.000227 -0.000114 -0.000155
-0.000220 -0.000113 -0.000160
-0.000213 -0.000113 -0.000166
-0.000206 -0.000113 -0.000172
-0.000199 -0.000112 -0.000177
-0.000192 -0.000112 -0.000182
-0.000184 -0.000112 -0.000187
-0.000176 -0.000111 -0.000192
-0.000169 -0.000111 -0.000197
-0.000161 -0.000110 -0.000201
-0.000152 -0.000109 -0.000205
-0.000144 -0.000109 -0.000208
-0.000136 -0.000107 -0.000211
-0.000127 -0.000106 -0.000214
-0.000118 -0.000105 -0.000216
-0.000110 -0.000103 -0.000217
-0.000101 -0.000101 -0.000218
-0.000092 -0.000098 -0.000218
-0.000083 -0.000096 -0.000218
-0.000075 -0.000093 -0.000217
-0.000067 -0.000090 -0.000215
-0.000059 -0.000086 -0.000212
-0.000051 -0.000082 -0.000209
-0.000044 -0.000078 -0.000205
-0.000037 -0.000074 -0.000201
-0.000031 -0.000070 -0.000196
-0.000026 -0.000065 -0.000190
-0.000021 -0.000061 -0.000184
-0.000017 -0.000056 -0.000177
-0.000013 -0.000052 -0.000170
-0.000010 -0.000048 -0.000163
-0.000007 -0.000043 -0.000155
-0.000004 -0.000039 -0.000148
-0.000002 -0.000035 -0.000140
-0.000001 -0.000031 -0.000132
0.000001 -0.000027 -0.000124
0.000002 -0.000023 -0.000116
0.000003 -0.000020 -0.000108
0.000004 -0.000016 -0.000100
0.000005 -0.000012 -0.000091
0.000006 -0.000008 -0.000083
0.000007 -0.000004 -0.000075
0.000007 -0.000001 -0.000067
0.000008 0.000003 -0.000059
0.000009 0.000007 -0.000051
0.000010 0.000011 -0.000043
0.000011 0.000015 -0.000034
0.000012 0.000020 -0.000027
0.000013 0.000024 -0.000019
0.000014 0.000028 -0.000011
0.000015 0.000033 -0.000003
0.000017 0.000037 0.000005
0.000018 0.000042 0.000012
0.000020 0.000047 0.000020
0.000022 0.000052 0.000027
0.000025 0.000057 0.000034
0.000027 0.000062 0.000041
0.000030 0.000067 0.000048
0.000034 0.000073 0.000054
0.000037 0.000079 0.000060
0.000042 0.000085 0.000065
0.000046 0.000091 0.000070
0.000051 0.000097 0.000075
0.000056 0.000103 0.000079
0.000062 0.000109 0.000082
0.000068 0.000115 0.000085
0.000075 0.000121 0.000087
0.000081 0.000127 0.000088
0.000088 0.000133 0.000088
0.000095 0.000139 0.000088
0.000103 0.000144 0.000088
0.000110 0.000149 0.000086
0.000118 0.000154 0.000085
0.000125 0.000158 0.000082
0.000133 0.000162 0.000080
0.000140 0.000166 0.000077
0.000148 0.000170 0.000073
0.000156 0.000173 0.000070
0.000163 0.000176 0.000066
0.000171 0.000178 0.000062
0.000179 0.000181 0.000058
0.000187 0.000183 0.000054
0.000195 0.000184 0.000050
0.000203 0.000186 0.000046
0.000211 0.000187 0.000041
0.000219 0.000187 0.000037
0.000227 0.000188 0.000033
0.000235 0.000188 0.000030
0.000243 0.000188 0.000026
0.000252 0.000189 0.000023
0.000260 0.000188 0.000019
0.000269 0.000188 0.000016
0.000277 0.000188 0.000014
0.000286 0.000188 0.000012
0.000295 0.000188 0.000010
0.000304 0.000187 0.000008
0.000313 0.000187 0.000007
0.000322 0.000187 0.000006
0.000331 0.000187 0.000006
0.000340 0.000188 0.000006
0.000349 0.000188 0.000007
0.000358 0.000189 0.000008
0.000367 0.000191 0.000010
0.000375 0.000192 0.000012
0.000384 0.000194 0.000015
0.000391 0.000197 0.000019
0.000399 0.000200 0.000023
0.000406 0.000204 0.000027
0.000413 0.000208 0.000032
0.000418 0.000212 0.000037
0.000424 0.000217 0.000042
0.000428 0.000223 0.000048
0.000432 0.000228 0.000054
0.000435 0.000234 0.000060
0.000438 0.000240 0.000067
0.000440 0.000246 0.000073
0.000441 0.000252 0.000080
0.000442 0.000258 0.000087
0.000442 0.000264 0.000094
0.000442 0.000269 0.000101
0.000442 0.000275 0.000108
0.000441 0.000280 0.000115
0.000440 0.000285 0.000123
0.000438 0.000290 0.000130
0.000437 0.000295 0.000138
0.000435 0.000300 0.000145
0.000434 0.000304 0.000153
VECTORS Rotation float
0.839552 0.041815 -2.266324
0.839448 0.041475 -2.263689
0.839141 0.040553 -2.255805
0.838648 0.039355 -2.242849
0.837988 0.038359 -2.225130
0.837160 0.038156 -2.202832
0.836130 0.039402 -2.176143
0.834825 0.042754 -2.145229
0.833143 0.048728 -2.110808
0.830889 0.057847 -2.072609
0.827843 0.070361 -2.030953
0.823732 0.086353 -1.986026
0.818216 0.105864 -1.937567
0.810902 0.128800 -1.885273
0.801424 0.154693 -1.829409
0.789300 0.183385 -1.769341
0.774085 0.214407 -1.704955
0.755311 0.247320 -1.635974
0.732522 0.281616 -1.562134
0.705355 0.316606 -1.483417
0.673390 0.351708 -1.399317
0.636595 0.385790 -1.310393
0.595037 0.417827 -1.216898
0.549050 0.446741 -1.119330
0.499504 0.471362 -1.019024
0.447473 0.490826 -0.917258
0.394558 0.504461 -0.816176
0.342553 0.512062 -0.718153
0.292919 0.513952 -0.624876
0.247107 0.510839 -0.538334
0.206136 0.503785 -0.459999
0.170307 0.493961 -0.390231
0.139731 0.482597 -0.329376
0.114030 0.470753 -0.276949
0.093076 0.459563 -0.233215
0.075966 0.449561 -0.196638
0.062451 0.441488 -0.167203
0.051775 0.435514 -0.143552
0.043610 0.431862 -0.125264
0.037484 0.430464 -0.111433
0.033128 0.431187 -0.101567
0.030308 0.433797 -0.095172
0.028856 0.438019 -0.091853
0.028647 0.443623 -0.091290
0.029626 0.450301 -0.093292
0.031778 0.457906 -0.097752
0.035116 0.466252 -0.104605
0.039692 0.475261 -0.113867
0.045623 0.484989 -0.125693
0.053010 0.495453 -0.140183
0.062044 0.506822 -0.157615
0.072955 0.519312 -0.178330
0.086013 0.533154 -0.202705
0.101553 0.548597 -0.231204
0.119977 0.565841 -0.264360
0.141794 0.585002 -0.302837
0.167565 0.605994 -0.347297
0.197969 0.628560 -0.398542
0.233770 0.652208 -0.457429
0.275751 0.676185 -0.524803
0.324578 0.699444 -0.601311
0.380600 0.720674 -0.687188
0.444117 0.738508 -0.782752
0.513702 0.751251 -0.885996
0.588832 0.757693 -0.996565
0.665378 0.756742 -1.109140
0.742501 0.747947 -1.223335
0.816942 0.731345 -1.335264
0.885049 0.708009 -1.440207
0.945714 0.679118 -1.536795
0.999244 0.645450 -1.625544
1.043969 0.609358 -1.703444
1.081364 0.571366 -1.772284
1.111961 0.532522 -1.832230
1.136510 0.493564 -1.883742
1.155574 0.455397 -1.926848
1.170453 0.417230 -1.963227
1.181623 0.379523 -1.992924
1.189739 0.342205 -2.016435
1.195392 0.305219 -2.034217
1.199118 0.268619 -2.046684
1.201420 0.232158 -2.054341
1.202691 0.197075 -2.057365
1.203315 0.162948 -2.056162
1.203615 0.130696 -2.051000
1.203880 0.101178 -2.042171
1.204268 0.074087 -2.029599
1.204976 0.050074 -2.013506
1.206131 0.029313 -1.993954
1.207822 0.011858 -1.970987
1.210103 -0.002310 -1.944654
1.212998 -0.013246 -1.915013
1.216524 -0.020880 -1.882511
1.220579 -0.025390 -1.846420
1.225145 -0.026569 -1.807693
1.230082 -0.024252 -1.765931
1.235280 -0.018185 -1.721699
1.240510 -0.007920 -1.674481
1.245589 0.006845 -1.624893
1.250078 0.026952 -1.571704
1.253781 0.052292 -1.516334
1.256229 0.083413 -1.458248
1.257021 0.120322 -1.397744
1.255580 0.163180 -1.334485
1.251263 0.211849 -1.268208
1.243711 0.265195 -1.199522
1.232386 0.322253 -1.128258
1.216757 0.381683 -1.054167
1.196255 0.441858 -0.976827
1.170245 0.500966 -0.895615
1.138489 0.556670 -0.810461
1.100476 0.607142 -0.720705
1.056797 0.650078 -0.627167
1.008222 0.683917 -0.530657
0.956241 0.707544 -0.432788
0.903200 0.720442 -0.336154
0.851546 0.722932 -0.243429
0.803640 0.716068 -0.157250
0.761169 0.701498 -0.079552
0.725034 0.681235 -0.011465
0.695496 0.657491 0.046512
0.672089 0.632356 0.094715
0.654219 0.607873 0.133578
0.640965 0.585643 0.164000
0.631610 0.567100 0.186647
0.625405 0.553151 0.202323
0.621918 0.544567 0.211458
0.620783 0.541656 0.214473
VECTORS ControlForce float
-0.000000 -0.000000 0.000000
-0.000058 0.000250 0.000077
-0.000125 0.000459 0.000146
-0.000184 0.000617 0.000203
-0.000205 0.000728 0.000249
-0.000191 0.000768 0.000285
-0.000155 0.000726 0.000315
-0.000080 0.000639 0.000352
0.000004 0.000506 0.000379
0.000081 0.000347 0.000399
0.000135 0.000176 0.000409
0.000166 0.000023 0.000412
0.000185 -0.000082 0.000417
0.000195 -0.000128 0.000427
0.000183 -0.000134 0.000432
0.000151 -0.000120 0.000437
0.000140 -0.000079 0.000444
0.000169 -0.000027 0.000450
0.000212 -0.000010 0.000450
0.000273 -0.000035 0.000444
0.000375 -0.000070 0.000428
0.000515 -0.000095 0.000392
0.000672 -0.000095 0.000330
0.000796 -0.000082 0.000249
0.000849 -0.000065 0.000163
0.000827 -0.000028 0.000084
0.000758 0.000056 0.000002
0.000640 0.000169 -0.000079
0.000470 0.000271 -0.000143
0.000276 0.000354 -0.000194
0.000078 0.000405 -0.000232
-0.000108 0.000415 -0.000249
-0.000272 0.000377 -0.000238
-0.000395 0.000310 -0.000217
-0.000474 0.000224 -0.000203
-0.000517 0.000122 -0.000190
-0.000530 0.000008 -0.000181
-0.000515 -0.000100 -0.000170
-0.000478 -0.000199 -0.000151
-0.000422 -0.000268 -0.000123
-0.000353 -0.000303 -0.000096
-0.000283 -0.000306 -0.000074
-0.000215 -0.000283 -0.000052
-0.000151 -0.000238 -0.000028
-0.000092 -0.000174 -0.000005
-0.000039 -0.000107 0.000028
0.000012 -0.000027 0.000054
0.000063 0.000062 0.000076
0.000108 0.000140 0.000112
0.000147 0.000218 0.000143
0.000177 0.000293 0.000165
0.000195 0.000352 0.000184
0.000206 0.000385 0.000200
0.000209 0.000361 0.000228
0.000216 0.000300 0.000252
0.000230 0.000216 0.000265
0.000245 0.000127 0.000264
0.000249 0.000035 0.000255
0.000224 -0.000066 0.000249
0.000162 -0.000176 0.000246
0.000070 -0.000278 0.000235
-0.000053 -0.000379 0.000218
-0.000176 -0.000438 0.000181
-0.000289 -0.000453 0.000121
-0.000398 -0.000456 0.000054
-0.000495 -0.000445 -0.000028
-0.000559 -0.000411 -0.000108
-0.000591 -0.000373 -0.000185
-0.000576 -0.000327 -0.000270
-0.000503 -0.000274 -0.000348
-0.000370 -0.000208 -0.000396
-0.000198 -0.000149 -0.000416
-0.000017 -0.000114 -0.000396
0.000153 -0.000093 -0.000338
0.000275 -0.000093 -0.000261
0.000339 -0.000093 -0.000182
0.000328 -0.000085 -0.000099
0.000256 -0.000037 -0.000019
0.000136 0.000051 0.000048
-0.000025 0.000144 0.000088
-0.000180 0.000252 0.000114
-0.000311 0.000333 0.000125
-0.000394 0.000374 0.000115
-0.000418 0.000362 0.000098
-0.000388 0.000304 0.000074
-0.000309 0.000222 0.000046
-0.000193 0.000161 0.000044
-0.000078 0.000102 0.000058
0.000017 0.000061 0.000082
0.000081 0.000048 0.000112
0.000100 0.000050 0.000142
0.000074 0.000064 0.000164
0.000011 0.000087 0.000180
-0.000082 0.000105 0.000203
-0.000203 0.000093 0.000223
-0.000322 0.000086 0.000244
-0.000428 0.000082 0.000264
-0.000510 0.000069 0.000289
-0.000552 0.000066 0.000324
-0.000543 0.000075 0.000374
-0.000478 0.000095 0.000416
-0.000360 0.000126 0.000438
-0.000199 0.000148 0.000435
-0.000014 0.000128 0.000419
0.000185 0.000060 0.000393
0.000381 -0.000071 0.000353
0.000559 -0.000260 0.000299
0.000702 -0.000490 0.000240
0.000796 -0.000699 0.000180
0.000826 -0.000858 0.000128
0.000784 -0.000954 0.000096
0.000667 -0.000946 0.000082
0.000483 -0.000855 0.000091
0.000249 -0.000682 0.000117
-0.000018 -0.000428 0.000147
-0.000289 -0.000131 0.000175
-0.000525 0.000148 0.000207
-0.000703 0.000376 0.000235
-0.000824 0.000546 0.000243
-0.000895 0.000648 0.000223
-0.000920 0.000667 0.000182
-0.000899 0.000607 0.000135
-0.000825 0.000486 0.000097
-0.000700 0.000339 0.000076
-0.000540 0.000203 0.000062
-0.000371 0.000108 0.000040
-0.000189 0.000044 0.000018
-0.000000 -0.000000 -0.000000
VECTORS ControlTorque float
0.000000 0.000002 0.000000
0.000000 0.000002 0.000000
0.000000 0.000002 0.000000
-0.000000 0.000002 -0.000000
-0.000000 0.000002 -0.000000
-0.000000 0.000002 -0.000000
-0.000001 0.000002 -0.000001
-0.000001 0.000001 -0.000001
-0.000001 0.000002 -0.000001
-0.000001 0.000001 -0.000001
-0.000001 0.000001 -0.000001
-0.000001 0.000001 -0.000001
-0.000001 0.000002 -0.000001
-0.000001 0.000001 -0.000001
-0.000001 0.000002 -0.000001
-0.000001 0.000001 -0.000001
-0.000001 0.000001 -0.000001
-0.000001 0.000001 -0.000001
-0.000000 0.000001 -0.000001
-0.000001 0.000002 -0.000001
-0.000000 0.000001 -0.000001
-0.000000 0.000001 -0.000001
-0.000000 0.000001 -0.000000
0.000000 -0.000000 0.000000
-0.000000 -0.000000 0.000000
0.000000 -0.000001 0.000001
0.000000 -0.000002 0.000001
0.000000 -0.000001 0.000001
0.000000 -0.000002 0.000001
0.000001 -0.000003 0.000002
0.000000 -0.000002 0.000001
0.000001 -0.000003 0.000001
0.000001 -0.000002 0.000001
0.000001 -0.000003 0.000001
0.000001 -0.000002 0.000001
0.000001 -0.000003 0.000001
0.000001 -0.000001 0.000001
0.000001 -0.000002 0.000001
0.000001 -0.000001 0.000001
0.000001 -0.000001 0.000001
0.000001 -0.000001 0.000000
0.000001 -0.000001 0.000000
0.000001 -0.000001 0.000000
0.000000 -0.000001 0.000000
0.000000 -0.000001 0.000000
0.000000 -0.000001 0.000000
0.000000 -0.000001 0.000000
0.000000 -0.000001 0.000000
0.000000 -0.000001 0.000000
0.000000 -0.000001 0.000000
0.000001 -0.000001 0.000000
0.000001 -0.000001 0.000000
0.000001 -0.000001 0.000001
0.000001 -0.000001 0.000001
0.000001 -0.000001 0.000001
0.000001 -0.000001 0.000001
0.000001 -0.000001 0.000001
0.000001 -0.000002 0.000001
0.000001 -0.000002 0.000001
0.000001 -0.000002 0.000001
0.000001 -0.000001 0.000001
0.000001 -0.000002 0.000001
0.000000 -0.000000 0.000000
0.000002 -0.000002 0.000001
-0.000001 0.000001 -0.000000
0.000001 -0.000001 0.000001
0.000000 -0.000000 0.000001
-0.000001 0.000001 -0.000000
-0.000001 0.000001 -0.000000
0.000000 -0.000000 0.000001
-0.000002 0.000003 -0.000001
-0.000000 0.000001 0.000000
-0.000001 0.000002 -0.000000
-0.000001 0.000002 -0.000000
-0.000002 0.000003 -0.000001
-0.000000 0.000001 0.000001
-0.000001 0.000002 -0.000000
-0.000001 0.000002 0.000000
-0.000001 0.000002 0.000000
-0.000001 0.000002 -0.000000
-0.000000 0.000002 0.000001
-0.000001 0.000002 -0.000001
-0.000000 0.000002 0.000000
-0.000001 0.000002 -0.000001
-0.000001 0.000001 -0.000001
-0.000000 0.000002 -0.000000
-0.000001 0.000001 -0.000001
-0.000001 0.000001 -0.000001
-0.000001 0.000001 -0.000001
-0.000000 0.000001 -0.000001
-0.000000 0.000002 -0.000001
-0.000000 0.000001 -0.000001
-0.000000 0.000002 -0.000001
-0.000000 0.000000 -0.000001
-0.000000 0.000002 -0.000001
-0.000000 0.000000 -0.000001
-0.000000 0.000002 -0.000002
-0.000000 0.000000 -0.000002
-0.000000 0.000003 -0.000003
0.000000 -0.000000 -0.000002
0.000000 0.000002 -0.000003
0.000000 0.000001 -0.000002
0.000000 0.000001 -0.000002
0.000001 0.000001 -0.000003
0.000001 0.000000 -0.000002
0.000001 0.000000 -0.000002
0.000001 0.000000 -0.000001
0.000001 0.000000 -0.000001
0.000000 0.000000 -0.000000
-0.000000 -0.000000 0.000001
-0.000001 0.000000 0.000000
-0.000001 -0.000001 0.000002
-0.000002 -0.000001 0.000002
-0.000002 -0.000001 0.000002
-0.000002 -0.000001 0.000002
-0.000002 -0.000001 0.000002
-0.000002 -0.000002 0.000002
-0.000002 -0.000002 0.000002
-0.000001 -0.000002 0.000001
-0.000001 -0.000002 0.000001
-0.000000 -0.000002 0.000001
0.000001 -0.000002 0.000001
0.000001 -0.000002 0.000001
0.000002 -0.000002 0.000001
0.000002 -0.000002 0.000001
0.000002 -0.000002 0.000001
0.000002 -0.000002 0.000001
0.000002 -0.000002 0.000001
VECTORS Curvature float
139.035126 -94.417905 -0.352228
444.691920 -308.468605 -1.189996
957.903493 -689.691518 -2.423035
1348.836272 -1036.316969 -3.091745
1691.102967 -1417.714217 -3.026405
1971.852082 -1837.410500 -1.615971
2213.068084 -2328.808541 1.884518
2337.944914 -2799.275928 8.208509
2401.180399 -3295.540340 18.586665
2459.994821 -3863.594692 33.668590
2445.787474 -4380.982214 54.361025
2425.354596 -4908.612194 81.441084
2438.864788 -5509.851359 115.141018
2432.959350 -6041.444372 154.583941
2435.212081 -6554.933974 200.702585
2470.626835 -7112.491916 251.066269
2496.879645 -7612.149752 304.949546
2534.339510 -8122.968683 360.197916
2554.231355 -8565.985063 413.884756
2583.326698 -9026.346558 464.387041
2603.962131 -9430.370700 506.390745
2597.652111 -9674.736752 538.874882
2609.353130 -9891.857292 558.456293
2614.558760 -9969.169630 562.931714
2623.805240 -9921.417377 552.815481
2639.446474 -9758.405813 528.070916
2627.636190 -9367.011520 491.615178
2612.607894 -8870.542204 446.690988
2583.983704 -8293.042415 396.522790
2499.619393 -7554.550599 344.759354
2390.640905 -6804.587782 293.848589
2240.681880 -6043.453629 246.180570
2064.917009 -5325.346960 202.868478
1811.955882 -4542.059561 165.040144
1542.752239 -3836.387734 131.883433
1253.313604 -3193.489513 104.284306
936.861535 -2572.669200 80.871517
641.778900 -2064.172372 61.606228
344.112410 -1581.035753 45.548632
78.831133 -1184.760485 32.091277
-163.005463 -813.403978 20.572286
-365.448776 -490.907033 10.341818
-542.395067 -205.037691 0.939615
-684.927230 54.249055 -8.134387
-800.341472 299.391034 -17.198678
-903.103002 534.032768 -26.584130
-983.357084 757.759032 -36.426206
-1074.156043 991.991016 -46.768041
-1171.698564 1232.152010 -57.385488
-1279.536780 1477.722990 -68.004747
-1423.737715 1750.987261 -78.101284
-1602.398233 2044.695882 -87.018948
-1821.858658 2360.405359 -94.069628
-2084.500024 2698.705597 -98.481588
-2392.706710 3066.435215 -99.584190
-2735.546190 3458.884877 -96.665939
-3097.894419 3870.281989 -89.371684
-3475.062192 4309.128347 -77.457490
-3851.084585 4768.756025 -61.031569
-4215.790514 5248.567565 -40.592303
-4521.790680 5695.264553 -16.745821
-4836.293492 6205.300931 8.524678
-5026.040918 6592.361245 35.366432
-5212.162080 7038.703325 59.758348
-5244.887048 7289.688757 82.437057
-5168.584691 7445.182930 100.014108
-5233.452187 7808.559325 113.249851
-5024.382695 7782.984785 119.359157
-4658.091688 7513.411305 120.854310
-4448.147102 7509.074631 120.292567
-4103.266261 7254.145158 111.621584
-3642.996044 6827.784295 105.854305
-3292.040546 6592.277109 95.455629
-2866.378410 6259.552208 85.185807
-2368.713458 5781.590036 72.419817
-1891.124033 5419.249328 60.737729
-1447.595391 5195.671909 44.736687
-947.095218 4862.183758 28.017721
-461.977410 4605.614511 8.869198
11.289402 4332.415970 -12.266341
478.596082 4172.104091 -34.629263
896.583576 3897.684768 -58.468912
1283.326743 3581.738073 -82.132204
1666.775925 3342.545670 -106.195886
1930.318637 2893.535577 -129.688950
2208.963400 2484.197752 -153.506891
2501.393536 2086.599922 -177.080105
2722.321193 1606.260519 -201.123197
2950.230518 1135.950571 -226.019475
3164.082524 665.675384 -252.157389
3403.443163 203.464797 -279.802213
3546.480859 -237.873443 -309.178704
3785.252705 -687.223942 -340.688427
4010.346018 -1123.010493 -373.942187
4161.609471 -1564.399967 -409.178673
4316.897491 -2011.916252 -446.981351
4469.973669 -2509.097837 -486.542203
4580.862275 -3009.448997 -529.692891
4774.735773 -3641.126967 -573.561727
4945.619847 -4302.415901 -622.852668
4959.382069 -4897.412769 -673.423193
5036.668849 -5580.673209 -729.702733
5057.638260 -6242.205513 -789.391057
5153.250290 -7016.952817 -852.938310
5167.558513 -7685.650044 -921.449014
5095.460158 -8188.077094 -990.302868
5033.236453 -8616.831036 -1058.863003
4963.848173 -8895.843133 -1123.035950
4941.938014 -9064.231602 -1178.330332
4925.792841 -9006.648164 -1222.594685
4975.216486 -8795.190951 -1248.962776
5074.080867 -8415.761588 -1259.039114
5179.650754 -7813.045638 -1247.815193
5355.066065 -7147.650742 -1217.519471
5527.710193 -6375.256460 -1169.132238
5673.181881 -5542.196245 -1104.923704
5766.662306 -4700.833964 -1028.358543
5767.137285 -3875.718398 -942.850413
5669.365663 -3110.086866 -851.745865
5430.458904 -2412.264150 -757.327523
5070.788503 -1807.976892 -661.842218
4576.390553 -1303.276069 -565.705391
3971.929955 -898.639056 -470.256694
3277.001816 -592.042810 -375.140271
2505.417903 -365.797788 -280.267193
1714.684080 -208.719522 -188.605173
782.442987 -84.531884 -86.059808
251.206651 -25.008614 -27.005523
VECTORS LocalRotation float
-0.310201 0.648313 -0.009154
-0.307552 0.646484 -0.009161
-0.301227 0.641983 -0.009177
-0.290827 0.634201 -0.009202
-0.277035 0.623068 -0.009230
-0.260396 0.608282 -0.009251
-0.241439 0.589409 -0.009250
-0.220949 0.566320 -0.009204
-0.199417 0.538630 -0.009083
-0.177439 0.506261 -0.008846
-0.155253 0.468976 -0.008448
-0.133147 0.426819 -0.007832
-0.111099 0.379595 -0.006941
-0.089110 0.327458 -0.005724
-0.067032 0.270330 -0.004112
-0.044833 0.208487 -0.002068
-0.022347 0.141832 0.000449
0.000435 0.070584 0.003461
0.023471 -0.004969 0.006965
0.046771 -0.084752 0.010948
0.070210 -0.168151 0.015335
0.093766 -0.254669 0.020068
0.117371 -0.343374 0.025043
0.141027 -0.433310 0.030121
0.164765 -0.523446 0.035177
0.188558 -0.612411 0.040063
0.212360 -0.698840 0.044671
0.236096 -0.781448 0.048921
0.259601 -0.859081 0.052735
0.282617 -0.930830 0.056091
0.304829 -0.996050 0.058992
0.325826 -1.054301 0.061440
0.345340 -1.105826 0.063476
0.362810 -1.150290 0.065133
0.378067 -1.188394 0.066484
0.390654 -1.220042 0.067547
0.400621 -1.246281 0.068390
0.407747 -1.267213 0.069033
0.412224 -1.283767 0.069519
0.414134 -1.296255 0.069870
0.413753 -1.305290 0.070108
0.411359 -1.311199 0.070248
0.407233 -1.314362 0.070299
0.401693 -1.315043 0.070267
0.394958 -1.313439 0.070152
0.387262 -1.309674 0.069954
0.378723 -1.303826 0.069669
0.369390 -1.295889 0.069292
0.359239 -1.285836 0.068821
0.348131 -1.273557 0.068253
0.335881 -1.258925 0.067591
0.322181 -1.241742 0.066843
0.306680 -1.221801 0.066023
0.288996 -1.198898 0.065152
0.268719 -1.172789 0.064255
0.245512 -1.143258 0.063366
0.219101 -1.110076 0.062524
0.189335 -1.073035 0.061769
0.156159 -1.031927 0.061142
0.119637 -0.986573 0.060681
0.080066 -0.937011 0.060422
0.037619 -0.883031 0.060384
-0.006916 -0.825242 0.060583
-0.053420 -0.763327 0.061015
-0.100496 -0.698823 0.061655
-0.148067 -0.631510 0.062488
-0.195081 -0.562569 0.063452
-0.241169 -0.492516 0.064497
-0.285144 -0.423044 0.065588
-0.326698 -0.354494 0.066689
-0.365153 -0.288105 0.067732
-0.400469 -0.223903 0.068723
-0.431863 -0.163152 0.069634
-0.459627 -0.105213 0.070449
-0.483189 -0.051018 0.071158
-0.502602 0.000028 0.071765
-0.517650 0.047871 0.072240
-0.528466 0.093298 0.072569
-0.534846 0.136163 0.072736
-0.536891 0.176716 0.072721
-0.534664 0.215371 0.072507
-0.528479 0.251662 0.072089
-0.518539 0.285767 0.071448
-0.505235 0.316994 0.070598
-0.489001 0.345138 0.069534
-0.470082 0.369718 0.068239
-0.448802 0.390367 0.066746
-0.425189 0.407061 0.065036
-0.399532 0.419463 0.063104
-0.371876 0.427613 0.060941
-0.342181 0.431542 0.058536
-0.310787 0.431387 0.055876
-0.277322 0.427165 0.052909
-0.242274 0.419026 0.049696
-0.205217 0.406840 0.046145
-0.166943 0.390695 0.042280
-0.126984 0.370135 0.038035
-0.086039 0.345170 0.033438
-0.043397 0.314857 0.028409
0.000167 0.279256 0.023047
0.045018 0.237599 0.017178
0.090291 0.190143 0.010823
0.136216 0.136353 0.003911
0.182576 0.076153 -0.003545
0.229120 0.009848 -0.011547
0.275526 -0.061928 -0.020192
0.321389 -0.138020 -0.029470
0.366701 -0.217396 -0.039360
0.411605 -0.298811 -0.049792
0.456249 -0.380569 -0.060654
0.501143 -0.461287 -0.071861
0.546555 -0.539063 -0.083195
0.593009 -0.612586 -0.094552
0.640755 -0.680391 -0.105725
0.690017 -0.741604 -0.116529
0.740739 -0.795571 -0.126826
0.792520 -0.841935 -0.136482
0.844741 -0.880767 -0.145407
0.896522 -0.912396 -0.153533
0.946756 -0.937389 -0.160815
0.994337 -0.956510 -0.167245
1.037993 -0.970590 -0.172800
1.076742 -0.980571 -0.177496
1.109533 -0.987314 -0.181320
1.135739 -0.991655 -0.184291
1.154804 -0.994250 -0.186409
1.166135 -0.995581 -0.187655
1.170805 -0.996076 -0.188166
VECTORS q1 float
-0.404029 -0.743694 -0.532617
-0.402871 -0.743635 -0.533575
-0.399334 -0.743458 -0.536473
-0.393286 -0.743164 -0.541326
-0.384531 -0.742752 -0.548138
-0.372717 -0.742204 -0.556970
-0.357418 -0.741479 -0.567857
-0.338166 -0.740502 -0.580776
-0.314873 -0.739170 -0.595384
-0.286877 -0.737296 -0.611634
-0.254020 -0.734651 -0.629096
-0.216205 -0.730953 -0.647274
-0.173115 -0.725841 -0.665722
-0.124528 -0.718904 -0.683864
-0.070914 -0.709770 -0.700855
-0.012020 -0.697958 -0.716038
0.051758 -0.683056 -0.728530
0.120042 -0.664656 -0.737443
0.192284 -0.642403 -0.741853
0.267519 -0.616082 -0.740862
0.345086 -0.585464 -0.733586
0.423187 -0.550769 -0.719421
0.500351 -0.512317 -0.697983
0.575037 -0.470660 -0.669188
0.645381 -0.426757 -0.633531
0.710061 -0.381607 -0.591767
0.767737 -0.336517 -0.545285
0.817564 -0.292810 -0.495833