# vtk DataFile Version 2.0
VTK example
ASCII
DATASET UNSTRUCTURED_GRID
POINTS  128  float
-0.000009 -0.000013 -0.000096
-0.000009 -0.000013 -0.000087
-0.000009 -0.000012 -0.000078
-0.000009 -0.000012 -0.000069
-0.000009 -0.000011 -0.000060
-0.000009 -0.000010 -0.000051
-0.000009 -0.000009 -0.000042
-0.000009 -0.000008 -0.000033
-0.000009 -0.000007 -0.000024
-0.000009 -0.000006 -0.000015
-0.000009 -0.000004 -0.000006
-0.000008 -0.000002 0.000003
-0.000007 0.000001 0.000012
-0.000006 0.000004 0.000020
-0.000005 0.000007 0.000028
-0.000003 0.000011 0.000036
-0.000001 0.000016 0.000044
0.000001 0.000021 0.000051
0.000003 0.000027 0.000057
0.000006 0.000033 0.000063
0.000010 0.000040 0.000069
0.000013 0.000046 0.000073
0.000017 0.000054 0.000077
0.000022 0.000061 0.000080
0.000027 0.000068 0.000082
0.000032 0.000076 0.000084
0.000037 0.000083 0.000085
0.000043 0.000090 0.000085
0.000049 0.000097 0.000085
0.000055 0.000103 0.000084
0.000062 0.000109 0.000082
0.000068 0.000115 0.000080
0.000075 0.000121 0.000078
0.000082 0.000126 0.000075
0.000089 0.000131 0.000073
0.000096 0.000136 0.000069
0.000103 0.000140 0.000066
0.000111 0.000144 0.000063
0.000118 0.000148 0.000059
0.000125 0.000151 0.000055
0.000133 0.000154 0.000052
0.000141 0.000158 0.000048
0.000148 0.000160 0.000044
0.000156 0.000163 0.000040
0.000164 0.000166 0.000036
0.000172 0.000168 0.000033
0.000180 0.000171 0.000029
0.000188 0.000173 0.000025
0.000196 0.000175 0.000022
0.000204 0.000177 0.000019
0.000212 0.000179 0.000016
0.000221 0.000180 0.000013
0.000229 0.000182 0.000010
0.000238 0.000184 0.000008
0.000247 0.000185 0.000006
0.000255 0.000187 0.000004
0.000264 0.000188 0.000002
0.000273 0.000189 0.000000
0.000282 0.000190 -0.000001
0.000291 0.000192 -0.000002
0.000300 0.000193 -0.000003
0.000309 0.000194 -0.000004
0.000317 0.000195 -0.000004
0.000326 0.000196 -0.000005
0.000335 0.000197 -0.000005
0.000344 0.000199 -0.000005
0.000353 0.000200 -0.000004
0.000362 0.000202 -0.000003
0.000371 0.000203 -0.000002
0.000380 0.000205 0.000000
0.000388 0.000207 0.000003
0.000396 0.000209 0.000006
0.000404 0.000211 0.000010
0.000412 0.000214 0.000014
0.000419 0.000216 0.000019
0.000425 0.000219 0.000025
0.000431 0.000222 0.000031
0.000436 0.000225 0.000038
0.000441 0.000228 0.000045
0.000445 0.000231 0.000053
0.000448 0.000235 0.000061
0.000451 0.000238 0.000069
0.000453 0.000241 0.000077
0.000454 0.000245 0.000085
0.000455 0.000248 0.000093
0.000455 0.000252 0.000102
0.000455 0.000255 0.000110
0.000454 0.000259 0.000119
0.000452 0.000262 0.000127
0.000451 0.000266 0.000135
0.000448 0.000269 0.000143
0.000446 0.000273 0.000151
0.000443 0.000276 0.000159
0.000440 0.000280 0.000166
0.000436 0.000283 0.000174
0.000433 0.000287 0.000182
0.000429 0.000290 0.000189
0.000425 0.000294 0.000196
0.000421 0.000297 0.000204
0.000417 0.000300 0.000211
0.000413 0.000304 0.000219
0.000409 0.000307 0.000226
0.000406 0.000311 0.000234
0.000402 0.000314 0.000241
0.000399 0.000318 0.000249
0.000396 0.000321 0.000257
0.000394 0.000325 0.000265
0.000392 0.000329 0.000273
0.000390 0.000332 0.000281
0.000389 0.000336 0.000289
0.000389 0.000339 0.000298
0.000389 0.000342 0.000306
0.000390 0.000346 0.000314
0.000392 0.000349 0.000323
0.000394 0.000352 0.000331
0.000397 0.000355 0.000339
0.000401 0.000358 0.000347
0.000405 0.000360 0.000354
0.000410 0.000363 0.000362
0.000415 0.000365 0.000368
0.000421 0.000367 0.000375
0.000427 0.000369 0.000381
0.000434 0.000371 0.000387
0.000441 0.000373 0.000393
0.000448 0.000375 0.000399
0.000455 0.000377 0.000404
0.000462 0.000379 0.000409
0.000469 0.000381 0.000414
CELLS  127 381
2 0 1 
2 1 2 
2 2 3 
2 3 4 
2 4 5 
2 5 6 
2 6 7 
2 7 8 
2 8 9 
2 9 10 
2 10 11 
2 11 12 
2 12 13 
2 13 14 
2 14 15 
2 15 16 
2 16 17 
2 17 18 
2 18 19 
2 19 20 
2 20 21 
2 21 22 
2 22 23 
2 23 24 
2 24 25 
2 25 26 
2 26 27 
2 27 28 
2 28 29 
2 29 30 
2 30 31 
2 31 32 
2 32 33 
2 33 34 
2 34 35 
2 35 36 
2 36 37 
2 37 38 
2 38 39 
2 39 40 
2 40 41 
2 41 42 
2 42 43 
2 43 44 
2 44 45 
2 45 46 
2 46 47 
2 47 48 
2 48 49 
2 49 50 
2 50 51 
2 51 52 
2 52 53 
2 53 54 
2 54 55 
2 55 56 
2 56 57 
2 57 58 
2 58 59 
2 59 60 
2 60 61 
2 61 62 
2 62 63 
2 63 64 
2 64 65 
2 65 66 
2 66 67 
2 67 68 
2 68 69 
2 69 70 
2 70 71 
2 71 72 
2 72 73 
2 73 74 
2 74 75 
2 75 76 
2 76 77 
2 77 78 
2 78 79 
2 79 80 
2 80 81 
2 81 82 
2 82 83 
2 83 84 
2 84 85 
2 85 86 
2 86 87 
2 87 88 
2 88 89 
2 89 90 
2 90 91 
2 91 92 
2 92 93 
2 93 94 
2 94 95 
2 95 96 
2 96 97 
2 97 98 
2 98 99 
2 99 100 
2 100 101 
2 101 102 
2 102 103 
2 103 104 
2 104 105 
2 105 106 
2 106 107 
2 107 108 
2 108 109 
2 109 110 
2 110 111 
2 111 112 
2 112 113 
2 113 114 
2 114 115 
2 115 116 
2 116 117 
2 117 118 
2 118 119 
2 119 120 
2 120 121 
2 121 122 
2 122 123 
2 123 124 
2 124 125 
2 125 126 
2 126 127 
CELL_TYPES  127
3
3
3
3
3
3
3
3
3
3
3
3
3
3
3
3
3
3
3
3
3
3
3
3
3
3
3
3
3
3
3
3
3
3
3
3
3
3
3
3
3
3
3
3
3
3
3
3
3
3
3
3
3
3
3
3
3
3
3
3
3
3
3
3
3
3
3
3
3
3
3
3
3
3
3
3
3
3
3
3
3
3
3
3
3
3
3
3
3
3
3
3
3
3
3
3
3
3
3
3
3
3
3
3
3
3
3
3
3
3
3
3
3
3
3
3
3
3
3
3
3
3
3
3
3
3
3
POINT_DATA  128
VECTORS Position float
-0.000009 -0.000013 -0.000096
-0.000009 -0.000013 -0.000087
-0.000009 -0.000012 -0.000078
-0.000009 -0.000012 -0.000069
-0.000009 -0.000011 -0.000060
-0.000009 -0.000010 -0.000051
-0.000009 -0.000009 -0.000042
-0.000009 -0.000008 -0.000033
-0.000009 -0.000007 -0.000024
-0.000009 -0.000006 -0.000015
-0.000009 -0.000004 -0.000006
-0.000008 -0.000002 0.000003
-0.000007 0.000001 0.000012
-0.000006 0.000004 0.000020
-0.000005 0.000007 0.000028
-0.000003 0.000011 0.000036
-0.000001 0.000016 0.000044
0.000001 0.000021 0.000051
0.000003 0.000027 0.000057
0.000006 0.000033 0.000063
0.000010 0.000040 0.000069
0.000013 0.000046 0.000073
0.000017 0.000054 0.000077
0.000022 0.000061 0.000080
0.000027 0.000068 0.000082
0.000032 0.000076 0.000084
0.000037 0.000083 0.000085
0.000043 0.000090 0.000085
0.000049 0.000097 0.000085
0.000055 0.000103 0.000084
0.000062 0.000109 0.000082
0.000068 0.000115 0.000080
0.000075 0.000121 0.000078
0.000082 0.000126 0.000075
0.000089 0.000131 0.000073
0.000096 0.000136 0.000069
0.000103 0.000140 0.000066
0.000111 0.000144 0.000063
0.000118 0.000148 0.000059
0.000125 0.000151 0.000055
0.000133 0.000154 0.000052
0.000141 0.000158 0.000048
0.000148 0.000160 0.000044
0.000156 0.000163 0.000040
0.000164 0.000166 0.000036
0.000172 0.000168 0.000033
0.000180 0.000171 0.000029
0.000188 0.000173 0.000025
0.000196 0.000175 0.000022
0.000204 0.000177 0.000019
0.000212 0.000179 0.000016
0.000221 0.000180 0.000013
0.000229 0.000182 0.000010
0.000238 0.000184 0.000008
0.000247 0.000185 0.000006
0.000255 0.000187 0.000004
0.000264 0.000188 0.000002
0.000273 0.000189 0.000000
0.000282 0.000190 -0.000001
0.000291 0.000192 -0.000002
0.000300 0.000193 -0.000003
0.000309 0.000194 -0.000004
0.000317 0.000195 -0.000004
0.000326 0.000196 -0.000005
0.000335 0.000197 -0.000005
0.000344 0.000199 -0.000005
0.000353 0.000200 -0.000004
0.000362 0.000202 -0.000003
0.000371 0.000203 -0.000002
0.000380 0.000205 0.000000
0.000388 0.000207 0.000003
0.000396 0.000209 0.000006
0.000404 0.000211 0.000010
0.000412 0.000214 0.000014
0.000419 0.000216 0.000019
0.000425 0.000219 0.000025
0.000431 0.000222 0.000031
0.000436 0.000225 0.000038
0.000441 0.000228 0.000045
0.000445 0.000231 0.000053
0.000448 0.000235 0.000061
0.000451 0.000238 0.000069
0.000453 0.000241 0.000077
0.000454 0.000245 0.000085
0.000455 0.000248 0.000093
0.000455 0.000252 0.000102
0.000455 0.000255 0.000110
0.000454 0.000259 0.000119
0.000452 0.000262 0.000127
0.000451 0.000266 0.000135
0.000448 0.000269 0.000143
0.000446 0.000273 0.000151
0.000443 0.000276 0.000159
0.000440 0.000280 0.000166
0.000436 0.000283 0.000174
0.000433 0.000287 0.000182
0.000429 0.000290 0.000189
0.000425 0.000294 0.000196
0.000421 0.000297 0.000204
0.000417 0.000300 0.000211
0.000413 0.000304 0.000219
0.000409 0.000307 0.000226
0.000406 0.000311 0.000234
0.000402 0.000314 0.000241
0.000399 0.000318 0.000249
0.000396 0.000321 0.000257
0.000394 0.000325 0.000265
0.000392 0.000329 0.000273
0.000390 0.000332 0.000281
0.000389 0.000336 0.000289
0.000389 0.000339 0.000298
0.000389 0.000342 0.000306
0.000390 0.000346 0.000314
0.000392 0.000349 0.000323
0.000394 0.000352 0.000331
0.000397 0.000355 0.000339
0.000401 0.000358 0.000347
0.000405 0.000360 0.000354
0.000410 0.000363 0.000362
0.000415 0.000365 0.000368
0.000421 0.000367 0.000375
0.000427 0.000369 0.000381
0.000434 0.000371 0.000387
0.000441 0.000373 0.000393
0.000448 0.000375 0.000399
0.000455 0.000377 0.000404
0.000462 0.000379 0.000409
0.000469 0.000381 0.000414
VECTORS Rotation float
-0.030001 0.055465 0.010974
-0.029960 0.056265 0.010749
-0.029832 0.058816 0.009990
-0.029593 0.063513 0.008461
-0.029201 0.070939 0.005821
-0.028593 0.081888 0.001643
-0.027676 0.097237 -0.004523
-0.026319 0.117853 -0.013110
-0.024354 0.144095 -0.024346
-0.021530 0.176811 -0.038715
-0.017540 0.216123 -0.056508
-0.011978 0.261920 -0.078091
-0.004265 0.314189 -0.104135
0.006394 0.372633 -0.135509
0.020916 0.435986 -0.172944
0.040733 0.503658 -0.217993
0.067520 0.574082 -0.272166
0.103410 0.645467 -0.337412
0.150907 0.715572 -0.415965
0.212494 0.781512 -0.509881
0.290742 0.840463 -0.621423
0.385942 0.888731 -0.750203
0.496175 0.923361 -0.893803
0.616260 0.942299 -1.046593
0.737784 0.944888 -1.199654
0.852600 0.932196 -1.344563
0.954172 0.906627 -1.474462
1.039413 0.871330 -1.586019
1.108704 0.829234 -1.679599
1.163570 0.783109 -1.756624
1.206260 0.735257 -1.819287
1.239321 0.687144 -1.870249
1.264720 0.640108 -1.911497
1.284230 0.594808 -1.944950
1.298906 0.552525 -1.971521
1.310033 0.512799 -1.992797
1.318152 0.476614 -2.009135
1.323977 0.443284 -2.021440
1.327858 0.413155 -2.029962
1.330156 0.385670 -2.035104
1.331107 0.360782 -2.037042
1.330914 0.338244 -2.035947
1.329748 0.317813 -2.031967
1.327739 0.299054 -2.025184
1.325033 0.281952 -2.015789
1.321715 0.266159 -2.003818
1.317893 0.251570 -1.989438
1.313645 0.238010 -1.972760
1.309018 0.225240 -1.953801
1.304106 0.213194 -1.932830
1.298971 0.201724 -1.910023
1.293690 0.190730 -1.885679
1.288357 0.180175 -1.860244
1.283058 0.170068 -1.834212
1.277866 0.160476 -1.808112
1.272834 0.151521 -1.782412
1.267990 0.143403 -1.757553
1.263326 0.136367 -1.733779
1.258793 0.130694 -1.711097
1.254305 0.126690 -1.689217
1.249734 0.124656 -1.667548
1.244920 0.124848 -1.645244
1.239664 0.127459 -1.621095
1.233742 0.132554 -1.594163
1.226863 0.140209 -1.562824
1.218758 0.150142 -1.526684
1.209025 0.162428 -1.483856
1.197313 0.176787 -1.433748
1.183378 0.192693 -1.376756
1.166910 0.209907 -1.312452
1.147491 0.228371 -1.239751
1.125383 0.247109 -1.161281
1.100375 0.266008 -1.076374
1.072751 0.284446 -0.986516
1.042992 0.301838 -0.893419
1.012067 0.317537 -0.800044
0.980035 0.331648 -0.705776
0.947892 0.343874 -0.613247
0.916215 0.354334 -0.523556
0.885398 0.363265 -0.437350
0.855654 0.370931 -0.354886
0.826685 0.377614 -0.275147
0.799179 0.383290 -0.199892
0.772367 0.388162 -0.127003
0.746515 0.392141 -0.057164
0.721932 0.395174 0.008889
0.698026 0.397309 0.072705
0.675215 0.398515 0.133280
0.653651 0.398870 0.190307
0.633502 0.398511 0.243436
0.614942 0.397621 0.292293
0.598133 0.396410 0.336528
0.583407 0.395103 0.375333
0.570508 0.393839 0.409403
0.559862 0.392768 0.437673
0.551420 0.391956 0.460300
0.545379 0.391459 0.476808
0.541750 0.391308 0.487202
0.540685 0.391542 0.491144
0.542245 0.392210 0.488491
0.546527 0.393329 0.479102
0.553644 0.394906 0.462745
0.563658 0.396864 0.439369
0.576702 0.399050 0.408732
0.592896 0.401187 0.370610
0.612139 0.402853 0.325374
0.634396 0.403568 0.273124
0.659519 0.402814 0.214146
0.687242 0.400103 0.148886
0.717189 0.395026 0.077910
0.748693 0.387362 0.002434
0.781224 0.377021 -0.076852
0.813895 0.364250 -0.158228
0.846039 0.349443 -0.240547
0.877039 0.333166 -0.322629
0.906315 0.316136 -0.403106
0.933480 0.299045 -0.480925
0.958254 0.282538 -0.555040
0.980494 0.267108 -0.624610
1.000151 0.253087 -0.688916
1.017219 0.240686 -0.747218
1.031782 0.229945 -0.799100
1.043893 0.220899 -0.843923
1.053671 0.213492 -0.881414
1.061171 0.207731 -0.911021
1.066488 0.203588 -0.932531
1.069646 0.201104 -0.945502
1.070697 0.200271 -0.949861
VECTORS ControlForce float
0.000000 0.000000 0.000000
0.000169 0.000268 0.000015
0.000309 0.000504 0.000038
0.000401 0.000684 0.000061
0.000436 0.000790 0.000075
0.000417 0.000813 0.000086
0.000362 0.000753 0.000097
0.000300 0.000626 0.000110
0.000257 0.000453 0.000130
0.000251 0.000267 0.000152
0.000281 0.000090 0.000176
0.000332 -0.000064 0.000188
0.000378 -0.000193 0.000189
0.000397 -0.000300 0.000175
0.000376 -0.000402 0.000148
0.000313 -0.000511 0.000117
0.000218 -0.000626 0.000078
0.000111 -0.000728 0.000023
0.000006 -0.000800 -0.000043
-0.000083 -0.000810 -0.000119
-0.000149 -0.000734 -0.000195
-0.000194 -0.000580 -0.000261
-0.000227 -0.000372 -0.000305
-0.000245 -0.000137 -0.000325
-0.000248 0.000104 -0.000321
-0.000255 0.000298 -0.000294
-0.000272 0.000436 -0.000258
-0.000296 0.000513 -0.000224
-0.000318 0.000535 -0.000201
-0.000324 0.000519 -0.000191
-0.000292 0.000495 -0.000189
-0.000230 0.000458 -0.000186
-0.000145 0.000411 -0.000172
-0.000062 0.000335 -0.000152
0.000017 0.000242 -0.000131
0.000099 0.000166 -0.000100
0.000170 0.000098 -0.000069
0.000225 0.000046 -0.000032
0.000252 0.000003 0.000006
0.000265 -0.000006 0.000052
0.000258 -0.000004 0.000094
0.000242 0.000004 0.000128
0.000229 0.000026 0.000157
0.000211 0.000035 0.000180
0.000194 0.000036 0.000196
0.000177 0.000033 0.000205
0.000164 0.000040 0.000207
0.000151 0.000052 0.000199
0.000145 0.000100 0.000190
0.000144 0.000179 0.000175
0.000148 0.000287 0.000155
0.000137 0.000372 0.000127
0.000110 0.000434 0.000094
0.000065 0.000457 0.000060
0.000002 0.000432 0.000027
-0.000075 0.000354 -0.000001
-0.000174 0.000190 -0.000025
-0.000286 -0.000043 -0.000043
-0.000399 -0.000336 -0.000052
-0.000481 -0.000619 -0.000049
-0.000514 -0.000848 -0.000034
-0.000503 -0.001013 -0.000009
-0.000456 -0.001099 0.000026
-0.000392 -0.001108 0.000065
-0.000314 -0.001002 0.000107
-0.000238 -0.000804 0.000138
-0.000181 -0.000575 0.000172
-0.000128 -0.000316 0.000199
-0.000063 -0.000038 0.000194
0.000028 0.000242 0.000159
0.000149 0.000498 0.000103
0.000292 0.000712 0.000015
0.000422 0.000829 -0.000084
0.000516 0.000873 -0.000191
0.000539 0.000829 -0.000299
0.000470 0.000706 -0.000400
0.000324 0.000520 -0.000466
0.000144 0.000284 -0.000481
-0.000016 0.000039 -0.000459
-0.000120 -0.000175 -0.000413
-0.000158 -0.000322 -0.000357
-0.000140 -0.000388 -0.000297
-0.000078 -0.000386 -0.000238
0.000009 -0.000328 -0.000175
0.000105 -0.000226 -0.000127
0.000194 -0.000107 -0.000096
0.000259 0.000009 -0.000074
0.000300 0.000105 -0.000053
0.000320 0.000169 -0.000033
0.000311 0.000200 -0.000026
0.000294 0.000194 -0.000014
0.000277 0.000161 0.000003
0.000265 0.000112 0.000027
0.000261 0.000068 0.000070
0.000248 0.000043 0.000106
0.000231 0.000043 0.000138
0.000203 0.000065 0.000160
0.000167 0.000098 0.000179
0.000124 0.000128 0.000196
0.000089 0.000140 0.000226
0.000053 0.000126 0.000243
0.000036 0.000084 0.000255
0.000041 0.000021 0.000267
0.000050 -0.000048 0.000285
0.000055 -0.000110 0.000317
0.000027 -0.000154 0.000338
-0.000040 -0.000174 0.000344
-0.000139 -0.000173 0.000338
-0.000262 -0.000161 0.000331
-0.000401 -0.000150 0.000325
-0.000545 -0.000144 0.000309
-0.000674 -0.000142 0.000272
-0.000754 -0.000156 0.000227
-0.000770 -0.000182 0.000175
-0.000716 -0.000224 0.000127
-0.000602 -0.000285 0.000091
-0.000445 -0.000354 0.000068
-0.000270 -0.000414 0.000054
-0.000103 -0.000448 0.000044
0.000025 -0.000460 0.000042
0.000101 -0.000442 0.000038
0.000121 -0.000409 0.000033
0.000093 -0.000383 0.000032
0.000047 -0.000340 0.000025
0.000006 -0.000276 0.000013
-0.000019 -0.000204 0.000006
-0.000019 -0.000113 0.000002
0.000000 0.000000 -0.000000
VECTORS ControlTorque float
0.000001 -0.000000 0.000000
0.000001 -0.000000 0.000000
0.000001 -0.000000 0.000000
0.000001 -0.000000 0.000000
0.000001 -0.000001 0.000000
0.000002 -0.000001 0.000000
0.000002 -0.000001 0.000000
0.000002 -0.000001 0.000000
0.000003 -0.000001 0.000000
0.000003 -0.000001 0.000000
0.000003 -0.000001 0.000000
0.000003 -0.000001 0.000000
0.000003 -0.000002 0.000000
0.000002 -0.000001 0.000000
0.000002 -0.000002 0.000000
0.000002 -0.000002 0.000000
0.000001 -0.000002 0.000001
0.000001 -0.000002 0.000001
-0.000000 -0.000001 0.000001
0.000000 -0.000001 0.000001
-0.000001 -0.000000 0.000001
-0.000001 -0.000000 0.000001
-0.000001 0.000000 0.000002
-0.000002 0.000001 0.000001
-0.000002 0.000001 0.000002
-0.000002 0.000001 0.000001
-0.000002 0.000002 0.000001
-0.000002 0.000001 0.000001
-0.000002 0.000002 0.000000
-0.000002 0.000002 -0.000000
-0.000001 0.000001 -0.000000
-0.000002 0.000002 -0.000001
-0.000001 0.000001 -0.000000
-0.000002 0.000002 -0.000002
-0.000001 0.000001 -0.000000
-0.000002 0.000002 -0.000002
-0.000001 0.000001 -0.000000
-0.000001 0.000001 -0.000001
-0.000001 0.000001 -0.000001
-0.000001 0.000001 -0.000001
-0.000001 0.000001 -0.000001
-0.000001 0.000001 -0.000001
-0.000001 0.000001 -0.000000
-0.000001 0.000001 -0.000001
-0.000000 0.000001 -0.000000
-0.000000 0.000001 -0.000000
-0.000000 0.000001 -0.000000
-0.000000 0.000001 -0.000000
-0.000000 0.000001 -0.000000
-0.000000 0.000001 -0.000000
-0.000000 0.000001 -0.000000
-0.000000 0.000000 -0.000000
-0.000000 0.000000 -0.000000
-0.000000 0.000000 -0.000000
-0.000000 -0.000000 -0.000000
-0.000000 -0.000000 -0.000000
-0.000000 -0.000000 -0.000000
-0.000000 -0.000000 -0.000001
-0.000000 -0.000000 -0.000001
-0.000000 -0.000000 -0.000001
-0.000000 0.000000 -0.000001
-0.000000 0.000001 -0.000001
-0.000000 0.000001 -0.000001
-0.000000 0.000002 -0.000001
-0.000000 0.000001 -0.000001
-0.000000 0.000003 -0.000001
-0.000000 0.000003 -0.000001
-0.000000 0.000002 -0.000001
-0.000000 0.000002 -0.000001
-0.000001 0.000005 -0.000002
0.000000 0.000000 -0.000000
-0.000000 0.000003 -0.000001
0.000000 0.000001 -0.000001
0.000000 0.000002 -0.000001
0.000001 -0.000002 0.000000
0.000000 0.000001 -0.000001
0.000001 -0.000002 0.000000
0.000001 -0.000001 0.000000
0.000001 -0.000001 0.000000
0.000001 -0.000002 0.000001
0.000001 0.000000 -0.000000
0.000001 -0.000003 0.000001
0.000001 0.000000 -0.000000
0.000000 -0.000001 0.000000
0.000000 -0.000002 0.000001
0.000000 0.000000 -0.000000
0.000000 -0.000002 0.000001
0.000000 -0.000001 0.000000
0.000000 -0.000001 0.000001
0.000000 -0.000002 0.000001
0.000000 -0.000001 0.000001
-0.000000 -0.000002 0.000001
0.000000 -0.000001 0.000000
-0.000000 -0.000003 0.000001
-0.000000 -0.000002 0.000001
-0.000000 -0.000002 0.000001
-0.000000 -0.000002 0.000001
-0.000000 -0.000002 0.000001
-0.000000 -0.000002 0.000001
-0.000000 -0.000002 0.000001
-0.000000 -0.000002 0.000001
-0.000000 -0.000002 0.000001
-0.000000 -0.000002 0.000001
-0.000000 -0.000003 0.000001
-0.000000 -0.000002 0.000001
-0.000000 -0.000002 0.000001
-0.000000 -0.000002 0.000001
-0.000000 -0.000002 0.000001
-0.000000 -0.000002 0.000001
-0.000000 -0.000001 0.000001
-0.000000 -0.000002 0.000001
0.000000 -0.000001 0.000000
0.000000 -0.000001 0.000000
0.000000 -0.000000 0.000000
0.000001 0.000000 -0.000000
0.000001 0.000001 -0.000000
0.000001 0.000001 -0.000001
0.000001 0.000001 -0.000001
0.000001 0.000002 -0.000001
0.000000 0.000002 -0.000001
0.000000 0.000002 -0.000001
0.000000 0.000003 -0.000001
0.000000 0.000003 -0.000001
-0.000000 0.000003 -0.000001
-0.000000 0.000003 -0.000001
-0.000000 0.000003 -0.000001
-0.000000 0.000003 -0.000001
-0.000000 0.000004 -0.000001
VECTORS Curvature float
-48.511788 14.681520 -1.749435
-165.059858 52.556964 -5.680203
-393.221511 134.279085 -12.798675
-649.435652 241.862988 -19.842782
-985.382826 395.406335 -27.904484
-1412.288385 598.969045 -36.528735
-1962.316129 864.176979 -45.271309
-2548.570270 1149.186336 -52.970370
-3202.191905 1467.314116 -58.803723
-3950.919577 1834.405004 -60.739339
-4659.326106 2196.794073 -57.226892
-5367.450989 2584.288248 -46.781917
-6129.451066 3038.656473 -28.297191
-6769.073983 3483.714725 0.293658
-7325.948044 3951.022705 36.427439
-7851.774599 4469.359886 81.419327
-8213.890164 4969.710641 131.339877
-8471.698417 5482.694023 182.996226
-8537.486138 5941.916291 232.832315
-8492.503878 6402.608114 273.571902
-8284.765851 6799.418879 304.534088
-7850.286984 7068.898437 318.280576
-7350.706450 7314.926924 315.015200
-6747.557561 7471.910284 295.019592
-6095.110590 7571.146368 261.280301
-5441.027432 7624.223565 219.590909
-4746.061528 7541.767672 175.034314
-4092.139601 7410.782121 132.899094
-3498.036199 7236.836342 94.071518
-2924.376529 6930.607401 60.012392
-2422.550707 6605.987735 31.591254
-1983.412742 6241.484598 7.435824
-1604.622651 5892.880689 -10.904320
-1249.806818 5409.923427 -25.814759
-937.294590 4969.502227 -34.423886
-662.304836 4523.412723 -40.636264
-392.338012 4049.867437 -41.746861
-149.372852 3655.370284 -40.674299
97.567387 3239.847684 -36.610519
339.385599 2903.693316 -31.056140
581.647166 2549.607263 -24.284217
816.722333 2227.323601 -16.951618
1066.705796 1962.240437 -9.558706
1307.374703 1715.855422 -2.168295
1540.613251 1479.969626 4.876948
1780.943004 1280.932272 11.908656
1992.407789 1082.737116 18.966869
2221.342771 916.692929 26.293246
2436.802772 765.739184 34.367046
2620.037683 625.469307 43.259565
2795.733086 507.115486 53.347976
2930.423502 403.721314 64.758975
3013.128933 314.621473 77.532591
3037.685682 236.884794 91.657510
3008.210978 165.512876 106.969541
2923.758387 92.978007 123.327737
2789.697481 9.942034 140.479205
2633.513056 -94.431747 158.275873
2479.395369 -232.400531 176.603338
2361.491683 -417.230342 195.466981
2295.352450 -651.215950 215.023783
2349.590837 -956.118105 235.462750
2478.860605 -1297.824344 257.033286
2769.619106 -1722.225050 279.960162
3122.185410 -2149.142419 303.765029
3572.111450 -2609.497259 328.691504
4248.834907 -3200.732606 352.906678
4833.938546 -3704.446267 374.252158
5320.241118 -4123.323932 391.343723
6056.076422 -4744.780803 402.895902
6592.114535 -5233.767206 402.373695
6954.640428 -5612.602331 393.585032
7409.931043 -6097.886393 371.074458
7667.905333 -6452.922332 337.929869
7572.493000 -6529.395730 293.440033
7463.207836 -6604.541194 244.409025
7365.752954 -6705.503354 189.160077
6973.900848 -6549.549587 134.980176
6583.411026 -6399.362962 82.924992
6117.877176 -6173.539814 35.736917
5811.607641 -6102.165929 -4.131030
5389.895124 -5888.713342 -36.848111
4991.458858 -5665.352691 -59.815874
4794.368920 -5632.203776 -75.248521
4389.581634 -5313.197986 -82.327480
4131.829132 -5124.381154 -82.581576
3956.087490 -5005.128639 -77.852329
3677.509521 -4729.389106 -69.187386
3418.689913 -4460.036602 -58.488708
3133.727747 -4146.002580 -47.297043
2849.724151 -3828.357945 -37.030293
2484.862775 -3397.106625 -28.639373
2164.609083 -3020.015272 -23.083834
1841.275552 -2627.091191 -20.550405
1465.663446 -2143.198173 -21.367509
1111.360808 -1668.372365 -25.377037
741.074414 -1152.930520 -32.397526
376.790239 -633.164718 -42.209837
-8.919569 -81.261183 -54.275616
-400.804854 474.097736 -68.362531
-808.399582 1042.993202 -83.971900
-1227.909891 1614.104296 -101.077200
-1652.705950 2184.459491 -119.414772
-2115.574505 2805.222223 -138.930390
-2558.753388 3409.285796 -159.599778
-2960.442152 3975.778854 -181.653453
-3353.752029 4549.813280 -205.290995
-3717.739592 5097.493652 -230.549313
-4076.730102 5640.558865 -257.120735
-4381.782426 6093.376552 -284.759461
-4669.074399 6490.921357 -312.147252
-4921.022735 6788.451034 -338.755753
-5092.430173 6914.639049 -362.405871
-5255.395178 6962.389794 -381.653949
-5354.791713 6862.540406 -394.788040
-5386.009342 6626.640298 -399.925948
-5349.770072 6281.377941 -396.185883
-5227.485374 5835.423407 -382.950253
-5031.202313 5332.972412 -360.653125
-4735.138542 4772.815833 -330.486981
-4364.072151 4197.840221 -294.005853
-3908.262445 3607.901087 -253.448708
-3383.370687 3016.718740 -210.530040
-2796.232127 2425.660600 -167.121715
-2146.966825 1824.554129 -123.798254
-1476.786151 1237.377364 -82.684254
-676.401385 562.270573 -37.573496
-217.640784 180.359962 -11.526026
VECTORS LocalRotation float
0.100790 -0.599752 -0.036337
0.099821 -0.599447 -0.036371
0.097303 -0.598604 -0.036454
0.092602 -0.596908 -0.036601
0.085186 -0.594017 -0.036818
0.074294 -0.589500 -0.037111
0.059008 -0.582872 -0.037481
0.038698 -0.573807 -0.037924
0.012570 -0.561920 -0.038431
-0.019771 -0.546992 -0.038972
-0.058710 -0.528761 -0.039505
-0.104212 -0.507064 -0.039977
-0.156324 -0.481577 -0.040318
-0.214542 -0.452138 -0.040444
-0.278466 -0.418420 -0.040277
-0.347144 -0.380318 -0.039744
-0.419869 -0.337590 -0.038781
-0.495421 -0.290262 -0.037358
-0.572424 -0.238541 -0.035475
-0.649657 -0.182557 -0.033179
-0.725467 -0.122902 -0.030566
-0.798535 -0.060099 -0.027746
-0.867448 0.005109 -0.024875
-0.931289 0.072068 -0.022113
-0.989487 0.140237 -0.019592
-1.041637 0.208929 -0.017418
-1.087673 0.277466 -0.015635
-1.127706 0.345194 -0.014240
-1.162038 0.411447 -0.013213
-1.191115 0.475590 -0.012515
-1.215401 0.537073 -0.012099
-1.235377 0.595322 -0.011922
-1.251638 0.650317 -0.011938
-1.264501 0.701249 -0.012104
-1.274448 0.748453 -0.012378
-1.281649 0.791189 -0.012716
-1.286448 0.830202 -0.013090
-1.288893 0.864985 -0.013462
-1.289129 0.896298 -0.013813
-1.287156 0.924038 -0.014119
-1.282991 0.948695 -0.014369
-1.276655 0.970339 -0.014556
-1.268097 0.989377 -0.014677
-1.257379 1.005981 -0.014729
-1.244465 1.020472 -0.014717
-1.229459 1.032946 -0.014641
-1.212379 1.043645 -0.014502
-1.193264 1.052714 -0.014296
-1.172211 1.060319 -0.014022
-1.149296 1.066623 -0.013670
-1.124752 1.071756 -0.013233
-1.098830 1.075879 -0.012698
-1.071925 1.079131 -0.012054
-1.044532 1.081628 -0.011288
-1.017151 1.083450 -0.010388
-0.990306 1.084620 -0.009346
-0.964439 1.085086 -0.008152
-0.939880 1.084703 -0.006799
-0.916727 1.083223 -0.005282
-0.894809 1.080282 -0.003598
-0.873719 1.075443 -0.001739
-0.852651 1.068152 0.000305
-0.830847 1.057975 0.002529
-0.807007 1.044257 0.004968
-0.780483 1.026828 0.007596
-0.749902 1.005090 0.010485
-0.714554 0.978830 0.013565
-0.673746 0.947805 0.016832
-0.627628 0.912253 0.020310
-0.575716 0.871786 0.023934
-0.518838 0.826914 0.027555
-0.457076 0.777463 0.031184
-0.392050 0.724452 0.034645
-0.324075 0.667869 0.037842
-0.255481 0.609438 0.040684
-0.186958 0.549583 0.043135
-0.120122 0.489592 0.045089
-0.055356 0.429725 0.046553
0.006024 0.371099 0.047539
0.063651 0.314055 0.048078
0.117873 0.258259 0.048221
0.168249 0.204334 0.048037
0.215587 0.151648 0.047596
0.259718 0.100700 0.046987
0.301167 0.051301 0.046276
0.340115 0.003595 0.045522
0.376653 -0.042167 0.044798
0.411160 -0.086171 0.044133
0.443256 -0.127734 0.043555
0.472894 -0.166661 0.043077
0.499948 -0.202717 0.042696
0.524045 -0.235356 0.042399
0.545267 -0.264645 0.042163
0.563277 -0.290035 0.041967
0.578273 -0.311666 0.041777
0.589906 -0.328872 0.041566
0.598330 -0.341702 0.041303
0.603387 -0.349782 0.040965
0.605064 -0.353039 0.040526
0.603228 -0.351278 0.039976
0.597752 -0.344409 0.039286
0.588530 -0.332374 0.038448
0.575424 -0.315092 0.037445
0.558315 -0.292438 0.036272
0.537235 -0.264412 0.034926
0.512279 -0.231019 0.033383
0.483689 -0.192415 0.031631
0.451637 -0.148689 0.029655
0.416304 -0.100012 0.027445
0.378035 -0.046925 0.024993
0.336996 0.010136 0.022286
0.293659 0.070145 0.019345
0.248294 0.132226 0.016168
0.201395 0.195119 0.012796
0.153367 0.257700 0.009281
0.104729 0.318783 0.005683
0.056135 0.377210 0.002079
0.008244 0.432071 -0.001448
-0.038204 0.482637 -0.004815
-0.082404 0.528374 -0.007943
-0.123631 0.569019 -0.010773
-0.161066 0.604342 -0.013250
-0.194119 0.634371 -0.015353
-0.222073 0.658990 -0.017062
-0.244475 0.678252 -0.018380
-0.260846 0.692085 -0.019313
-0.270617 0.700251 -0.019859
-0.274656 0.703607 -0.020080
VECTORS q1 float
0.999508 0.029950 0.009306
0.999512 0.029908 0.009060
0.999523 0.029776 0.008232
0.999542 0.029529 0.006579
0.999569 0.029124 0.003749
0.999594 0.028493 -0.000696
0.999595 0.027542 -0.007207
0.999527 0.026133 -0.016199
0.999322 0.024099 -0.027832
0.998873 0.021193 -0.042480
0.998038 0.017131 -0.060224
0.996639 0.011569 -0.081098
0.994437 0.004056 -0.105257
0.991127 -0.005955 -0.132786
0.986387 -0.018958 -0.163344
0.979774 -0.035665 -0.196903
0.970846 -0.056653 -0.232915
0.959131 -0.082458 -0.270681
0.944184 -0.113460 -0.309264
0.925673 -0.149706 -0.347443
0.903256 -0.191238 -0.384131
0.876968 -0.237302 -0.417869
0.846889 -0.287135 -0.447585
0.813211 -0.339816 -0.472454
0.776389 -0.394061 -0.491870
0.736797 -0.448839 -0.505643
0.695056 -0.502886 -0.513812
0.651882 -0.555033 -0.516709
0.607761 -0.604602 -0.514862
0.563464 -0.650766 -0.508932
0.519769 -0.692923 -0.499697
0.477105 -0.730978 -0.487896
0.436101 -0.764756 -0.474305
0.397005 -0.794480 -0.459552
0.360748 -0.819933 -0.444489
0.326847 -0.841917 -0.429357