# vtk DataFile Version 2.0
VTK example
ASCII
DATASET UNSTRUCTURED_GRID
POINTS  128  float
-0.000002 -0.000012 -0.000029
-0.000002 -0.000010 -0.000021
-0.000002 -0.000007 -0.000012
-0.000002 -0.000004 -0.000003
-0.000002 -0.000001 0.000005
-0.000001 0.000002 0.000014
-0.000001 0.000005 0.000022
0.000000 0.000010 0.000030
0.000002 0.000014 0.000038
0.000003 0.000019 0.000045
0.000005 0.000025 0.000052
0.000008 0.000031 0.000058
0.000011 0.000037 0.000064
0.000014 0.000044 0.000069
0.000018 0.000051 0.000073
0.000022 0.000058 0.000077
0.000027 0.000065 0.000080
0.000032 0.000072 0.000082
0.000037 0.000079 0.000083
0.000043 0.000086 0.000084
0.000049 0.000093 0.000084
0.000056 0.000099 0.000083
0.000062 0.000105 0.000082
0.000069 0.000111 0.000080
0.000076 0.000116 0.000078
0.000083 0.000121 0.000075
0.000090 0.000125 0.000072
0.000098 0.000130 0.000068
0.000105 0.000134 0.000064
0.000112 0.000137 0.000060
0.000119 0.000141 0.000056
0.000127 0.000144 0.000052
0.000134 0.000147 0.000048
0.000142 0.000150 0.000044
0.000149 0.000153 0.000040
0.000157 0.000156 0.000035
0.000164 0.000158 0.000031
0.000172 0.000161 0.000027
0.000180 0.000163 0.000024
0.000188 0.000165 0.000020
0.000196 0.000167 0.000016
0.000204 0.000169 0.000013
0.000212 0.000171 0.000009
0.000221 0.000173 0.000006
0.000229 0.000175 0.000003
0.000237 0.000176 0.000001
0.000246 0.000178 -0.000002
0.000255 0.000180 -0.000004
0.000263 0.000181 -0.000007
0.000272 0.000183 -0.000009
0.000281 0.000185 -0.000010
0.000289 0.000186 -0.000012
0.000298 0.000188 -0.000013
0.000307 0.000190 -0.000014
0.000316 0.000191 -0.000014
0.000325 0.000193 -0.000014
0.000334 0.000195 -0.000013
0.000343 0.000197 -0.000012
0.000351 0.000199 -0.000011
0.000360 0.000201 -0.000009
0.000368 0.000204 -0.000006
0.000376 0.000206 -0.000003
0.000384 0.000209 0.000001
0.000392 0.000212 0.000005
0.000399 0.000214 0.000010
0.000405 0.000217 0.000015
0.000412 0.000221 0.000020
0.000417 0.000224 0.000027
0.000423 0.000227 0.000033
0.000428 0.000231 0.000040
0.000432 0.000234 0.000047
0.000435 0.000238 0.000055
0.000438 0.000241 0.000063
0.000441 0.000245 0.000070
0.000443 0.000248 0.000079
0.000444 0.000252 0.000087
0.000445 0.000255 0.000095
0.000446 0.000258 0.000104
0.000445 0.000262 0.000112
0.000445 0.000265 0.000121
0.000444 0.000268 0.000129
0.000442 0.000271 0.000137
0.000441 0.000274 0.000146
0.000439 0.000277 0.000154
0.000436 0.000280 0.000162
0.000434 0.000283 0.000170
0.000431 0.000287 0.000178
0.000428 0.000290 0.000186
0.000425 0.000293 0.000194
0.000421 0.000296 0.000202
0.000418 0.000299 0.000210
0.000415 0.000302 0.000218
0.000412 0.000305 0.000226
0.000408 0.000308 0.000233
0.000405 0.000311 0.000241
0.000402 0.000315 0.000249
0.000400 0.000318 0.000257
0.000397 0.000321 0.000266
0.000395 0.000324 0.000274
0.000394 0.000327 0.000282
0.000393 0.000330 0.000291
0.000392 0.000333 0.000299
0.000392 0.000336 0.000308
0.000393 0.000340 0.000316
0.000394 0.000343 0.000324
0.000396 0.000346 0.000333
0.000399 0.000349 0.000340
0.000403 0.000353 0.000348
0.000407 0.000356 0.000355
0.000412 0.000359 0.000362
0.000418 0.000363 0.000368
0.000424 0.000366 0.000374
0.000431 0.000369 0.000379
0.000438 0.000372 0.000383
0.000446 0.000375 0.000387
0.000454 0.000378 0.000390
0.000462 0.000381 0.000393
0.000471 0.000383 0.000395
0.000479 0.000385 0.000397
0.000488 0.000388 0.000398
0.000497 0.000390 0.000399
0.000506 0.000391 0.000400
0.000515 0.000393 0.000400
0.000523 0.000394 0.000400
0.000532 0.000396 0.000400
0.000541 0.000397 0.000400
0.000550 0.000398 0.000400
0.000559 0.000399 0.000400
CELLS  127 381
2 0 1 
2 1 2 
2 2 3 
2 3 4 
2 4 5 
2 5 6 
2 6 7 
2 7 8 
2 8 9 
2 9 10 
2 10 11 
2 11 12 
2 12 13 
2 13 14 
2 14 15 
2 15 16 
2 16 17 
2 17 18 
2 18 19 
2 19 20 
2 20 21 
2 21 22 
2 22 23 
2 23 24 
2 24 25 
2 25 26 
2 26 27 
2 27 28 
2 28 29 
2 29 30 
2 30 31 
2 31 32 
2 32 33 
2 33 34 
2 34 35 
2 35 36 
2 36 37 
2 37 38 
2 38 39 
2 39 40 
2 40 41 
2 41 42 
2 42 43 
2 43 44 
2 44 45 
2 45 46 
2 46 47 
2 47 48 
2 48 49 
2 49 50 
2 50 51 
2 51 52 
2 52 53 
2 53 54 
2 54 55 
2 55 56 
2 56 57 
2 57 58 
2 58 59 
2 59 60 
2 60 61 
2 61 62 
2 62 63 
2 63 64 
2 64 65 
2 65 66 
2 66 67 
2 67 68 
2 68 69 
2 69 70 
2 70 71 
2 71 72 
2 72 73 
2 73 74 
2 74 75 
2 75 76 
2 76 77 
2 77 78 
2 78 79 
2 79 80 
2 80 81 
2 81 82 
2 82 83 
2 83 84 
2 84 85 
2 85 86 
2 86 87 
2 87 88 
2 88 89 
2 89 90 
2 90 91 
2 91 92 
2 92 93 
2 93 94 
2 94 95 
2 95 96 
2 96 97 
2 97 98 
2 98 99 
2 99 100 
2 100 101 
2 101 102 
2 102 103 
2 103 104 
2 104 105 
2 105 106 
2 106 107 
2 107 108 
2 108 109 
2 109 110 
2 110 111 
2 111 112 
2 112 113 
2 113 114 
2 114 115 
2 115 116 
2 116 117 
2 117 118 
2 118 119 
2 119 120 
2 120 121 
2 121 122 
2 122 123 
2 123 124 
2 124 125 
2 125 126 
2 126 127 
CELL_TYPES  127
3
3
3
3
3
3
3
3
3
3
3
3
3
3
3
3
3
3
3
3
3
3
3
3
3
3
3
3
3
3
3
3
3
3
3
3
3
3
3
3
3
3
3
3
3
3
3
3
3
3
3
3
3
3
3
3
3
3
3
3
3
3
3
3
3
3
3
3
3
3
3
3
3
3
3
3
3
3
3
3
3
3
3
3
3
3
3
3
3
3
3
3
3
3
3
3
3
3
3
3
3
3
3
3
3
3
3
3
3
3
3
3
3
3
3
3
3
3
3
3
3
3
3
3
3
3
3
POINT_DATA  128
VECTORS Position float
-0.000002 -0.000012 -0.000029
-0.000002 -0.000010 -0.000021
-0.000002 -0.000007 -0.000012
-0.000002 -0.000004 -0.000003
-0.000002 -0.000001 0.000005
-0.000001 0.000002 0.000014
-0.000001 0.000005 0.000022
0.000000 0.000010 0.000030
0.000002 0.000014 0.000038
0.000003 0.000019 0.000045
0.000005 0.000025 0.000052
0.000008 0.000031 0.000058
0.000011 0.000037 0.000064
0.000014 0.000044 0.000069
0.000018 0.000051 0.000073
0.000022 0.000058 0.000077
0.000027 0.000065 0.000080
0.000032 0.000072 0.000082
0.000037 0.000079 0.000083
0.000043 0.000086 0.000084
0.000049 0.000093 0.000084
0.000056 0.000099 0.000083
0.000062 0.000105 0.000082
0.000069 0.000111 0.000080
0.000076 0.000116 0.000078
0.000083 0.000121 0.000075
0.000090 0.000125 0.000072
0.000098 0.000130 0.000068
0.000105 0.000134 0.000064
0.000112 0.000137 0.000060
0.000119 0.000141 0.000056
0.000127 0.000144 0.000052
0.000134 0.000147 0.000048
0.000142 0.000150 0.000044
0.000149 0.000153 0.000040
0.000157 0.000156 0.000035
0.000164 0.000158 0.000031
0.000172 0.000161 0.000027
0.000180 0.000163 0.000024
0.000188 0.000165 0.000020
0.000196 0.000167 0.000016
0.000204 0.000169 0.000013
0.000212 0.000171 0.000009
0.000221 0.000173 0.000006
0.000229 0.000175 0.000003
0.000237 0.000176 0.000001
0.000246 0.000178 -0.000002
0.000255 0.000180 -0.000004
0.000263 0.000181 -0.000007
0.000272 0.000183 -0.000009
0.000281 0.000185 -0.000010
0.000289 0.000186 -0.000012
0.000298 0.000188 -0.000013
0.000307 0.000190 -0.000014
0.000316 0.000191 -0.000014
0.000325 0.000193 -0.000014
0.000334 0.000195 -0.000013
0.000343 0.000197 -0.000012
0.000351 0.000199 -0.000011
0.000360 0.000201 -0.000009
0.000368 0.000204 -0.000006
0.000376 0.000206 -0.000003
0.000384 0.000209 0.000001
0.000392 0.000212 0.000005
0.000399 0.000214 0.000010
0.000405 0.000217 0.000015
0.000412 0.000221 0.000020
0.000417 0.000224 0.000027
0.000423 0.000227 0.000033
0.000428 0.000231 0.000040
0.000432 0.000234 0.000047
0.000435 0.000238 0.000055
0.000438 0.000241 0.000063
0.000441 0.000245 0.000070
0.000443 0.000248 0.000079
0.000444 0.000252 0.000087
0.000445 0.000255 0.000095
0.000446 0.000258 0.000104
0.000445 0.000262 0.000112
0.000445 0.000265 0.000121
0.000444 0.000268 0.000129
0.000442 0.000271 0.000137
0.000441 0.000274 0.000146
0.000439 0.000277 0.000154
0.000436 0.000280 0.000162
0.000434 0.000283 0.000170
0.000431 0.000287 0.000178
0.000428 0.000290 0.000186
0.000425 0.000293 0.000194
0.000421 0.000296 0.000202
0.000418 0.000299 0.000210
0.000415 0.000302 0.000218
0.000412 0.000305 0.000226
0.000408 0.000308 0.000233
0.000405 0.000311 0.000241
0.000402 0.000315 0.000249
0.000400 0.000318 0.000257
0.000397 0.000321 0.000266
0.000395 0.000324 0.000274
0.000394 0.000327 0.000282
0.000393 0.000330 0.000291
0.000392 0.000333 0.000299
0.000392 0.000336 0.000308
0.000393 0.000340 0.000316
0.000394 0.000343 0.000324
0.000396 0.000346 0.000333
0.000399 0.000349 0.000340
0.000403 0.000353 0.000348
0.000407 0.000356 0.000355
0.000412 0.000359 0.000362
0.000418 0.000363 0.000368
0.000424 0.000366 0.000374
0.000431 0.000369 0.000379
0.000438 0.000372 0.000383
0.000446 0.000375 0.000387
0.000454 0.000378 0.000390
0.000462 0.000381 0.000393
0.000471 0.000383 0.000395
0.000479 0.000385 0.000397
0.000488 0.000388 0.000398
0.000497 0.000390 0.000399
0.000506 0.000391 0.000400
0.000515 0.000393 0.000400
0.000523 0.000394 0.000400
0.000532 0.000396 0.000400
0.000541 0.000397 0.000400
0.000550 0.000398 0.000400
0.000559 0.000399 0.000400
VECTORS Rotation float
-0.058316 0.274206 0.009522
-0.057657 0.279001 0.006509
-0.055578 0.293403 -0.002556
-0.051828 0.317202 -0.017629
-0.046010 0.349925 -0.038645
-0.037457 0.391206 -0.065876
-0.025235 0.440455 -0.099880
-0.008058 0.496767 -0.141610
0.015305 0.557786 -0.191645
0.047213 0.622406 -0.252386
0.089996 0.687865 -0.325782
0.146223 0.751036 -0.414052
0.218761 0.808856 -0.519891
0.309543 0.857802 -0.644964
0.416950 0.893906 -0.786966
0.537442 0.914648 -0.942158
0.663079 0.918564 -1.102103
0.784901 0.906165 -1.257474
0.895541 0.879653 -1.400611
0.990718 0.842333 -1.526937
1.070041 0.797456 -1.636045
1.134195 0.748439 -1.728318
1.185367 0.697869 -1.805848
1.225863 0.647666 -1.870861
1.257569 0.599422 -1.925029
1.282210 0.554025 -1.969935
1.301038 0.512231 -2.006542
1.315078 0.474489 -2.035579
1.325247 0.440728 -2.057792
1.332225 0.410880 -2.073659
1.336596 0.384690 -2.083647
1.338876 0.361591 -2.088299
1.339484 0.341122 -2.088116
1.338785 0.322677 -2.083636
1.337143 0.306061 -2.075527
1.334784 0.290558 -2.064252
1.332047 0.276202 -2.050672
1.329048 0.262547 -2.035111
1.326012 0.249718 -2.018272
1.322974 0.237580 -2.000335
1.320028 0.226300 -1.981684
1.317194 0.215998 -1.962486
1.314459 0.206804 -1.942810
1.311733 0.198750 -1.922429
1.309020 0.192024 -1.901457
1.306207 0.186638 -1.879541
1.303244 0.182659 -1.856566
1.300043 0.180088 -1.832260
1.296474 0.178884 -1.806144
1.292459 0.179008 -1.777985
1.287859 0.180410 -1.747280
1.282526 0.183051 -1.713532
1.276318 0.186913 -1.676319
1.269080 0.192006 -1.635248
1.260664 0.198381 -1.590053
1.250919 0.206130 -1.540564
1.239733 0.215353 -1.486897
1.226995 0.226157 -1.429263
1.212613 0.238604 -1.368000
1.196514 0.252672 -1.303527
1.178649 0.268200 -1.236326
1.159000 0.284873 -1.166888
1.137429 0.302340 -1.095136
1.114158 0.319858 -1.022119
1.088930 0.337044 -0.947046
1.062436 0.352863 -0.872006
1.034270 0.367133 -0.795440
1.004795 0.379241 -0.718057
0.974782 0.388643 -0.641518
0.944427 0.395245 -0.565727
0.913549 0.399104 -0.489579
0.883299 0.400232 -0.415594
0.853451 0.398937 -0.342597
0.824406 0.395564 -0.271188
0.796509 0.390551 -0.201920
0.770331 0.384484 -0.136119
0.745492 0.377732 -0.072585
0.722419 0.370858 -0.012505
0.701183 0.364312 0.043815
0.681790 0.358467 0.096163
0.664198 0.353598 0.144404
0.648150 0.349819 0.189032
0.633917 0.347283 0.228948
0.621078 0.345884 0.265174
0.609704 0.345506 0.297285
0.599856 0.345947 0.324930
0.591298 0.346968 0.348740
0.584154 0.348290 0.368285
0.578490 0.349652 0.383366
0.574411 0.350822 0.393700
0.572054 0.351625 0.398926
0.571580 0.351957 0.398632
0.573131 0.351800 0.392422
0.576930 0.351219 0.379728
0.582983 0.350380 0.360507
0.591460 0.349494 0.334309
0.602290 0.348840 0.301360
0.615640 0.348680 0.261254
0.631347 0.349258 0.214571
0.649850 0.350742 0.160210
0.670696 0.353148 0.099684
0.694141 0.356447 0.032487
0.720119 0.360458 -0.040966
0.748792 0.364921 -0.120942
0.780211 0.369447 -0.207459
0.813868 0.373513 -0.299097
0.849414 0.376624 -0.395039
0.886307 0.378283 -0.494108
0.923880 0.378041 -0.594929
0.961418 0.375529 -0.696096
0.997954 0.370513 -0.795522
1.032925 0.362847 -0.892175
1.065488 0.352582 -0.984087
1.095253 0.339820 -1.070339
1.121984 0.324735 -1.150252
1.145540 0.307609 -1.223183
1.165994 0.288753 -1.288967
1.183503 0.268571 -1.347559
1.198311 0.247522 -1.399139
1.210695 0.226141 -1.443981
1.220916 0.205082 -1.482317
1.229249 0.184972 -1.514556
1.235911 0.166563 -1.540934
1.241111 0.150452 -1.561891
1.245000 0.137294 -1.577690
1.247700 0.127511 -1.588734
1.249290 0.121526 -1.595214
1.249815 0.119501 -1.597361
VECTORS ControlForce float
0.000000 0.000000 0.000000
-0.000108 -0.000018 0.000006
-0.000184 -0.000060 0.000028
-0.000212 -0.000142 0.000057
-0.000183 -0.000270 0.000074
-0.000105 -0.000440 0.000082
0.000006 -0.000641 0.000089
0.000125 -0.000841 0.000083
0.000231 -0.001003 0.000053
0.000294 -0.001102 0.000015
0.000288 -0.001121 -0.000023
0.000213 -0.001029 -0.000069
0.000081 -0.000825 -0.000113
-0.000088 -0.000542 -0.000146
-0.000273 -0.000237 -0.000167
-0.000437 0.000051 -0.000181
-0.000564 0.000268 -0.000190
-0.000628 0.000416 -0.000201
-0.000630 0.000484 -0.000213
-0.000591 0.000472 -0.000223
-0.000530 0.000391 -0.000232
-0.000446 0.000284 -0.000243
-0.000348 0.000162 -0.000253
-0.000248 0.000033 -0.000260
-0.000139 -0.000075 -0.000259
-0.000016 -0.000132 -0.000244
0.000116 -0.000136 -0.000216
0.000247 -0.000099 -0.000183
0.000363 -0.000039 -0.000150
0.000464 0.000055 -0.000118
0.000527 0.000148 -0.000095
0.000554 0.000244 -0.000074
0.000545 0.000342 -0.000051
0.000495 0.000419 -0.000029
0.000418 0.000484 -0.000011
0.000315 0.000506 0.000001
0.000197 0.000471 0.000002
0.000087 0.000398 0.000005
0.000001 0.000316 0.000015
-0.000063 0.000223 0.000031
-0.000102 0.000143 0.000049
-0.000122 0.000060 0.000058
-0.000126 -0.000016 0.000062
-0.000117 -0.000081 0.000069
-0.000103 -0.000146 0.000075
-0.000083 -0.000197 0.000084
-0.000063 -0.000243 0.000094
-0.000061 -0.000312 0.000102
-0.000072 -0.000368 0.000114
-0.000095 -0.000400 0.000129
-0.000130 -0.000407 0.000144
-0.000172 -0.000384 0.000161
-0.000207 -0.000293 0.000179
-0.000228 -0.000136 0.000194
-0.000240 0.000036 0.000198
-0.000228 0.000202 0.000191
-0.000185 0.000333 0.000171
-0.000109 0.000408 0.000138
-0.000003 0.000411 0.000096
0.000113 0.000327 0.000052
0.000224 0.000185 0.000013
0.000321 0.000047 -0.000025
0.000392 -0.000056 -0.000062
0.000424 -0.000121 -0.000099
0.000416 -0.000141 -0.000136
0.000360 -0.000154 -0.000168
0.000268 -0.000159 -0.000176
0.000160 -0.000137 -0.000170
0.000053 -0.000089 -0.000167
-0.000039 -0.000010 -0.000174
-0.000103 0.000082 -0.000173
-0.000134 0.000172 -0.000168
-0.000133 0.000244 -0.000143
-0.000104 0.000309 -0.000108
-0.000054 0.000358 -0.000079
0.000002 0.000383 -0.000073
0.000057 0.000365 -0.000065
0.000101 0.000313 -0.000067
0.000128 0.000234 -0.000086
0.000139 0.000133 -0.000108
0.000145 0.000023 -0.000118
0.000157 -0.000079 -0.000110
0.000177 -0.000160 -0.000102
0.000207 -0.000214 -0.000087
0.000242 -0.000237 -0.000079
0.000281 -0.000228 -0.000084
0.000331 -0.000192 -0.000069
0.000380 -0.000130 -0.000040
0.000403 -0.000047 -0.000013
0.000407 0.000048 0.000025
0.000372 0.000148 0.000068
0.000299 0.000240 0.000116
0.000191 0.000316 0.000169
0.000045 0.000368 0.000217
-0.000112 0.000393 0.000251
-0.000250 0.000392 0.000266
-0.000338 0.000371 0.000270
-0.000359 0.000338 0.000280
-0.000323 0.000302 0.000304
-0.000259 0.000264 0.000345
-0.000200 0.000223 0.000373
-0.000162 0.000166 0.000381
-0.000149 0.000078 0.000377
-0.000168 -0.000041 0.000355
-0.000208 -0.000188 0.000315
-0.000248 -0.000354 0.000252
-0.000265 -0.000515 0.000164
-0.000245 -0.000643 0.000056
-0.000186 -0.000731 -0.000049
-0.000096 -0.000768 -0.000143
0.000011 -0.000727 -0.000233
0.000113 -0.000634 -0.000300
0.000191 -0.000507 -0.000344
0.000233 -0.000355 -0.000367
0.000232 -0.000189 -0.000370
0.000184 -0.000028 -0.000355
0.000089 0.000101 -0.000328
-0.000041 0.000195 -0.000297
-0.000184 0.000262 -0.000267
-0.000316 0.000303 -0.000241
-0.000411 0.000333 -0.000221
-0.000448 0.000366 -0.000203
-0.000427 0.000390 -0.000182
-0.000361 0.000392 -0.000156
-0.000273 0.000350 -0.000123
-0.000179 0.000260 -0.000085
-0.000090 0.000131 -0.000045
0.000000 0.000000 -0.000000
VECTORS ControlTorque float
0.000004 -0.000002 0.000001
0.000004 -0.000002 0.000001
0.000004 -0.000002 0.000001
0.000004 -0.000002 0.000001
0.000004 -0.000002 0.000001
0.000003 -0.000002 0.000001
0.000004 -0.000002 0.000001
0.000002 -0.000001 0.000000
0.000003 -0.000002 0.000001
0.000001 -0.000002 0.000001
0.000001 -0.000001 0.000001
0.000000 -0.000001 0.000001
0.000000 -0.000002 0.000002
-0.000001 -0.000000 0.000002
-0.000001 -0.000001 0.000002
-0.000001 0.000000 0.000002
-0.000001 0.000000 0.000001
-0.000001 0.000001 0.000001
-0.000002 0.000001 0.000000
-0.000001 0.000001 0.000000
-0.000002 0.000002 -0.000000
-0.000001 0.000002 -0.000001
-0.000001 0.000002 -0.000001
-0.000002 0.000002 -0.000001
-0.000002 0.000002 -0.000001
-0.000002 0.000002 -0.000001
-0.000002 0.000002 -0.000001
-0.000002 0.000002 -0.000001
-0.000002 0.000002 -0.000001
-0.000002 0.000002 -0.000001
-0.000001 0.000002 -0.000001
-0.000001 0.000002 -0.000001
-0.000001 0.000002 -0.000000
-0.000001 0.000001 -0.000001
-0.000000 0.000001 0.000000
-0.000001 0.000001 -0.000001
-0.000000 0.000001 0.000000
-0.000000 0.000000 -0.000000
-0.000000 0.000001 -0.000000
-0.000000 0.000000 -0.000000
-0.000000 0.000000 -0.000000
-0.000000 0.000000 -0.000000
-0.000000 0.000000 -0.000000
-0.000000 0.000000 -0.000001
-0.000000 0.000001 -0.000000
-0.000000 0.000000 -0.000001
-0.000000 0.000000 -0.000001
-0.000000 0.000001 -0.000001
-0.000000 0.000001 -0.000001
-0.000000 0.000001 -0.000001
-0.000000 0.000001 -0.000001
-0.000000 0.000001 -0.000001
-0.000000 0.000002 -0.000001
-0.000000 0.000002 -0.000001
-0.000000 0.000002 -0.000001
-0.000000 0.000002 -0.000001
-0.000000 0.000001 -0.000001
-0.000000 0.000001 -0.000001
-0.000000 0.000001 -0.000001
0.000000 0.000001 -0.000001
0.000000 0.000000 -0.000001
0.000000 0.000001 -0.000001
0.000000 -0.000001 -0.000000
-0.000000 0.000002 -0.000001
0.000000 -0.000002 0.000001
-0.000000 0.000001 -0.000001
-0.000000 0.000000 -0.000000
0.000000 -0.000001 0.000001
-0.000000 -0.000001 0.000000
-0.000000 0.000001 -0.000000
0.000000 -0.000002 0.000001
-0.000000 0.000000 -0.000000
0.000000 -0.000001 0.000000
0.000000 -0.000000 0.000000
0.000001 -0.000002 0.000001
0.000000 0.000000 -0.000000
0.000001 -0.000001 0.000001
0.000001 -0.000001 0.000000
0.000001 -0.000001 0.000001
0.000001 -0.000002 0.000001
0.000001 -0.000001 0.000000
0.000001 -0.000002 0.000001
0.000001 -0.000001 0.000000
0.000000 -0.000002 0.000001
0.000000 -0.000002 0.000001
0.000000 -0.000001 0.000000
-0.000000 -0.000002 0.000001
-0.000000 -0.000002 0.000001
-0.000000 -0.000002 0.000001
-0.000000 -0.000002 0.000001
-0.000000 -0.000002 0.000001
-0.000000 -0.000002 0.000001
-0.000001 -0.000003 0.000001
-0.000000 -0.000002 0.000001
-0.000000 -0.000003 0.000001
-0.000000 -0.000002 0.000001
0.000000 -0.000003 0.000001
0.000000 -0.000002 0.000001
0.000000 -0.000004 0.000002
0.000001 -0.000001 0.000001
0.000001 -0.000003 0.000001
0.000001 -0.000002 0.000001
0.000001 -0.000002 0.000001
0.000001 -0.000003 0.000001
0.000001 -0.000001 0.000000
0.000001 -0.000001 0.000000
0.000001 -0.000001 0.000000
0.000001 -0.000001 -0.000000
0.000001 -0.000000 -0.000000
0.000000 0.000001 -0.000001
0.000000 0.000000 -0.000000
-0.000000 0.000002 -0.000001
-0.000000 0.000002 -0.000000
-0.000001 0.000002 -0.000000
-0.000001 0.000002 -0.000000
-0.000001 0.000002 -0.000000
-0.000001 0.000003 -0.000000
-0.000001 0.000002 -0.000000
-0.000001 0.000002 -0.000000
-0.000000 0.000002 -0.000000
-0.000000 0.000002 -0.000000
-0.000000 0.000002 -0.000001
-0.000000 0.000002 -0.000001
-0.000000 0.000002 -0.000001
-0.000000 0.000002 -0.000001
-0.000000 0.000002 -0.000002
-0.000000 0.000002 -0.000002
-0.000000 0.000002 -0.000002
VECTORS Curvature float
-291.532749 200.432427 10.653521
-943.633645 647.611990 31.971490
-2074.721707 1416.948394 69.057967
-3023.827238 2051.795878 99.346778
-3963.809767 2676.840429 127.555652
-4870.460346 3288.777609 151.816206
-5790.468705 3943.332235 171.233404
-6478.434791 4495.329006 188.417709
-7026.272416 5042.428041 198.360196
-7532.891114 5668.733814 206.392285
-7735.150997 6198.337681 210.102178
-7774.818164 6726.853769 209.352720
-7745.460153 7324.831183 205.050587
-7478.030402 7778.884213 199.054268
-7073.433713 8152.645645 185.938326
-6661.967161 8498.996521 168.919741
-6161.950662 8686.125057 144.970295
-5676.703527 8787.501169 117.045986
-5177.444417 8721.777492 87.487002
-4725.259283 8585.614216 61.218404
-4303.092628 8330.900121 37.197405
-3861.093019 7897.382336 18.511985
-3468.487095 7438.548929 3.735963
-3078.356300 6898.399902 -8.159488
-2688.500232 6317.706435 -17.074487
-2296.049436 5726.647751 -24.858911
-1867.885696 5076.099694 -31.720792
-1430.801573 4451.417021 -38.194568
-988.147535 3870.429324 -45.201960
-534.780177 3298.515315 -52.720531
-91.049886 2802.891780 -60.959779
331.538144 2377.668711 -70.066901
741.530976 2033.990292 -79.859228
1090.730035 1720.640069 -90.164603
1416.663572 1480.810409 -100.927586
1673.304028 1291.825061 -111.464374
1874.869367 1128.043547 -121.855594
2037.094404 1006.498278 -131.153524
2140.603943 883.684339 -139.397546
2234.318491 776.656557 -145.828888
2272.830587 650.763596 -150.400528
2289.558474 516.202240 -152.839368
2335.708374 374.486003 -153.240399
2374.420105 218.529142 -151.359223
2412.445125 45.929283 -147.610056
2490.536625 -136.634374 -141.900824
2558.835278 -327.705355 -134.538554
2689.381075 -530.792430 -125.666600
2851.971173 -741.161383 -115.384805
3037.790940 -956.366293 -103.842845
3290.852081 -1189.485483 -91.071240
3585.555984 -1437.560075 -77.164011
3916.688521 -1703.734917 -62.174183
4272.367985 -1990.638260 -46.206410
4644.266386 -2304.752947 -29.405761
5004.256621 -2642.422612 -12.070613
5323.214727 -2996.100607 5.509193
5597.564814 -3366.096782 22.919900
5811.362358 -3738.902945 39.733093
5966.944632 -4105.091545 55.614092
6029.513310 -4418.021510 70.145515
6120.004702 -4746.040768 83.888439
6099.440035 -4956.048512 95.351045
6145.546407 -5176.361113 107.331941
6081.515783 -5247.045697 116.204075
5989.986938 -5231.868999 126.821519
6142.561810 -5376.257630 134.999508
6061.464574 -5271.303324 142.400913
5868.434196 -5037.263220 149.297751
5957.004020 -5025.313587 154.674038
5898.823370 -4897.013538 157.729475
5738.293914 -4693.136292 159.121008
5737.483157 -4653.721152 157.822884
5638.670893 -4567.719374 154.013073
5353.245470 -4370.204067 147.912088
5106.400624 -4239.453657 138.919859
4905.725516 -4184.201216 128.617649
4523.265691 -4002.542237 116.755543
4146.213802 -3843.140816 104.301978
3714.815561 -3639.171952 91.971115
3359.352460 -3512.424218 80.443578
2927.417224 -3287.674698 70.629429
2495.467217 -3036.102579 62.547493
2168.193058 -2866.045509 56.861404
1757.707476 -2531.178341 53.437129
1428.402562 -2240.623774 52.201710
1152.593437 -1959.569948 52.772795
864.964206 -1586.649047 54.714629
604.174088 -1188.898450 57.441500
348.788029 -744.999353 60.351312
87.627272 -254.354345 62.844012
-182.916242 267.121093 64.370057
-493.529350 844.614831 64.458304
-832.514864 1431.057353 62.686005
-1214.311617 2024.122020 58.828992
-1630.029327 2591.190470 52.629263
-2108.202232 3155.236522 44.203718
-2595.280486 3641.112507 33.597893
-3194.025043 4179.723147 21.369793
-3808.691884 4659.160694 8.175595
-4350.843416 4977.098867 -5.267070
-4960.529756 5328.438391 -17.942488
-5545.513853 5611.719714 -28.930350
-6232.877631 5968.422271 -37.246293
-6834.459473 6219.643719 -42.075072
-7299.244033 6340.194501 -43.668359
-7711.571882 6422.534422 -42.190535
-8003.477081 6422.614639 -38.684283
-8210.671944 6385.535772 -34.501936
-8229.197392 6245.542432 -31.590313
-8125.166582 6070.594633 -31.407615
-7886.792652 5858.816260 -36.043142
-7461.217411 5577.796626 -46.102389
-6995.691876 5333.320958 -62.178727
-6440.716478 5079.166248 -84.079946
-5829.948999 4825.670210 -110.413135
-5201.084032 4580.472107 -139.574223
-4563.809463 4327.461346 -168.962883
-3950.262619 4070.420806 -195.775887
-3353.367228 3776.804950 -217.106893
-2796.093400 3452.841126 -229.817932
-2275.526825 3077.709213 -231.831120
-1798.028373 2655.125509 -221.096272
-1367.526703 2186.890486 -197.466298
-976.996499 1673.222673 -160.713942
-635.410434 1147.048464 -115.157261
-281.430360 524.123764 -54.436714
-88.855742 168.503105 -17.132207
VECTORS LocalRotation float
0.043887 -0.719799 -0.016421
0.038281 -0.715951 -0.016227
0.024670 -0.706641 -0.015772
0.001682 -0.691001 -0.015012
-0.030019 -0.669549 -0.013983
-0.070148 -0.642450 -0.012714
-0.118441 -0.609689 -0.011251
-0.173681 -0.571695 -0.009631
-0.235037 -0.528362 -0.007874
-0.300863 -0.479934 -0.006044
-0.369911 -0.426266 -0.004160
-0.440296 -0.367611 -0.002257
-0.510645 -0.303919 -0.000379
-0.579357 -0.235747 0.001445
-0.645351 -0.163494 0.003191
-0.707502 -0.088147 0.004797
-0.765553 -0.010354 0.006218
-0.819158 0.068766 0.007404
-0.868296 0.148033 0.008330
-0.913206 0.226523 0.009005
-0.954002 0.302963 0.009449
-0.990974 0.376453 0.009702
-1.024202 0.445978 0.009803
-1.053848 0.510900 0.009783
-1.079981 0.570790 0.009668
-1.102514 0.625238 0.009479
-1.121331 0.674056 0.009223
-1.136273 0.717211 0.008906
-1.147214 0.754852 0.008529
-1.154109 0.787309 0.008086
-1.156952 0.815022 0.007569
-1.155861 0.838510 0.006975
-1.150998 0.858504 0.006296
-1.142742 0.875423 0.005530
-1.131338 0.889983 0.004661
-1.117428 0.902465 0.003704
-1.101282 0.913477 0.002643
-1.083622 0.923112 0.001501
-1.064650 0.931696 0.000272
-1.044896 0.939193 -0.001016
-1.024517 0.945647 -0.002355
-1.003845 0.950935 -0.003729
-0.982827 0.954982 -0.005120
-0.961565 0.957659 -0.006495
-0.939859 0.958858 -0.007851
-0.917707 0.958448 -0.009159
-0.894852 0.956347 -0.010410
-0.871045 0.952452 -0.011590
-0.845999 0.946703 -0.012680
-0.819310 0.939011 -0.013673
-0.790629 0.929286 -0.014557
-0.759499 0.917394 -0.015318
-0.725539 0.903174 -0.015949
-0.688466 0.886449 -0.016440
-0.648084 0.866996 -0.016782
-0.604420 0.844608 -0.016970
-0.557663 0.819079 -0.017000
-0.508208 0.790268 -0.016871
-0.456544 0.758094 -0.016587
-0.403217 0.722580 -0.016155
-0.348887 0.683980 -0.015586
-0.293779 0.642413 -0.014887
-0.238601 0.598603 -0.014078
-0.182981 0.552579 -0.013157
-0.127937 0.505654 -0.012151
-0.072791 0.457784 -0.011041
-0.017957 0.409839 -0.009857
0.036876 0.362000 -0.008611
0.091058 0.315182 -0.007286
0.145020 0.269264 -0.005899
0.198335 0.224644 -0.004494
0.251390 0.180921 -0.003050
0.303339 0.138609 -0.001615
0.354626 0.097036 -0.000209
0.404098 0.056809 0.001150
0.451766 0.017572 0.002457
0.496893 -0.020395 0.003663
0.539479 -0.057371 0.004771
0.578730 -0.092892 0.005772
0.614396 -0.126840 0.006662
0.646550 -0.159346 0.007446
0.674823 -0.189927 0.008126
0.699551 -0.218763 0.008733
0.720582 -0.245380 0.009271
0.738301 -0.269738 0.009769
0.752863 -0.291549 0.010252
0.764523 -0.310524 0.010726
0.773643 -0.326554 0.011212
0.780288 -0.339107 0.011719
0.784599 -0.347855 0.012252
0.786572 -0.352374 0.012809
0.786141 -0.352316 0.013384
0.783054 -0.347242 0.013972
0.777092 -0.337010 0.014543
0.767811 -0.321342 0.015094
0.754970 -0.300508 0.015598
0.737970 -0.274375 0.016038
0.716693 -0.243630 0.016390
0.690305 -0.207983 0.016640
0.658921 -0.168369 0.016773
0.621974 -0.124735 0.016786
0.579802 -0.078060 0.016681
0.532003 -0.028287 0.016468
0.478527 0.024289 0.016167
0.419596 0.079255 0.015810
0.355688 0.136046 0.015422
0.287719 0.193836 0.015033
0.216491 0.252056 0.014666
0.142991 0.310117 0.014335
0.068612 0.367264 0.014036
-0.005543 0.423108 0.013750
-0.077900 0.477017 0.013445
-0.147434 0.528830 0.013073
-0.212955 0.578281 0.012582
-0.273777 0.625415 0.011920
-0.329343 0.670267 0.011040
-0.379274 0.712843 0.009908
-0.423486 0.753175 0.008511
-0.462035 0.791198 0.006860
-0.495089 0.826712 0.004991
-0.522952 0.859469 0.002966
-0.545902 0.889022 0.000877
-0.564367 0.915009 -0.001176
-0.578687 0.936912 -0.003070
-0.589312 0.954405 -0.004693
-0.596597 0.967147 -0.005939
-0.600757 0.974730 -0.006709
-0.602430 0.977859 -0.007032
VECTORS q1 float
0.998405 0.056105 -0.006276
0.998420 0.055396 -0.009371
0.998412 0.053175 -0.018618
0.998217 0.049220 -0.033761
0.997587 0.043206 -0.054350
0.996191 0.034619 -0.080030
0.993627 0.022824 -0.110386
0.989416 0.007084 -0.144935
0.983120 -0.012985 -0.182499
0.974111 -0.038346 -0.222794
0.961829 -0.069438 -0.264695
0.945730 -0.106506 -0.307004
0.925191 -0.149815 -0.348678
0.899663 -0.199255 -0.388464
0.869087 -0.253664 -0.424667
0.833231 -0.312319 -0.456271
0.792440 -0.373613 -0.482132
0.747287 -0.435905 -0.501547
0.698606 -0.497536 -0.514206
0.647566 -0.556825 -0.520197
0.595084 -0.612764 -0.519996
0.542691 -0.664015 -0.514363
0.491513 -0.710002 -0.504294
0.442473 -0.750520 -0.490854
0.396511 -0.785489 -0.475170
0.354112 -0.815247 -0.458233
0.315770 -0.840130 -0.440988
0.281762 -0.860601 -0.424237
0.251935 -0.877312 -0.408476
0.226170 -0.890804 -0.394101
0.204200 -0.901610 -0.381315
0.185501 -0.910293 -0.370075
0.169646 -0.917281 -0.360300
0.156091 -0.922979 -0.351776
0.144604 -0.927618 -0.344405