# vtk DataFile Version 2.0
VTK example
ASCII
DATASET UNSTRUCTURED_GRID
POINTS  128  float
-0.000000 -0.000000 -0.000000
0.000001 0.000004 0.000008
0.000003 0.000007 0.000016
0.000005 0.000011 0.000024
0.000006 0.000016 0.000032
0.000008 0.000020 0.000039
0.000010 0.000025 0.000047
0.000013 0.000031 0.000053
0.000016 0.000037 0.000060
0.000019 0.000043 0.000066
0.000022 0.000050 0.000071
0.000026 0.000057 0.000075
0.000030 0.000064 0.000079
0.000034 0.000071 0.000082
0.000039 0.000078 0.000084
0.000045 0.000085 0.000086
0.000050 0.000092 0.000086
0.000056 0.000099 0.000087
0.000063 0.000106 0.000086
0.000069 0.000112 0.000085
0.000076 0.000118 0.000083
0.000083 0.000123 0.000081
0.000090 0.000128 0.000078
0.000097 0.000132 0.000075
0.000104 0.000136 0.000071
0.000112 0.000140 0.000067
0.000119 0.000144 0.000063
0.000126 0.000147 0.000059
0.000134 0.000150 0.000055
0.000141 0.000153 0.000050
0.000148 0.000155 0.000045
0.000156 0.000158 0.000041
0.000163 0.000160 0.000036
0.000171 0.000162 0.000032
0.000178 0.000164 0.000027
0.000186 0.000166 0.000023
0.000194 0.000168 0.000018
0.000201 0.000169 0.000014
0.000209 0.000171 0.000010
0.000217 0.000172 0.000005
0.000225 0.000174 0.000002
0.000233 0.000175 -0.000002
0.000242 0.000176 -0.000006
0.000250 0.000177 -0.000009
0.000258 0.000178 -0.000012
0.000267 0.000180 -0.000015
0.000275 0.000181 -0.000018
0.000284 0.000182 -0.000020
0.000293 0.000183 -0.000022
0.000302 0.000184 -0.000023
0.000311 0.000186 -0.000025
0.000319 0.000187 -0.000025
0.000328 0.000189 -0.000026
0.000337 0.000191 -0.000026
0.000346 0.000193 -0.000025
0.000355 0.000195 -0.000024
0.000363 0.000197 -0.000022
0.000372 0.000200 -0.000019
0.000380 0.000202 -0.000016
0.000388 0.000205 -0.000013
0.000395 0.000208 -0.000008
0.000402 0.000211 -0.000003
0.000408 0.000215 0.000002
0.000414 0.000218 0.000008
0.000420 0.000222 0.000014
0.000424 0.000225 0.000021
0.000428 0.000229 0.000028
0.000432 0.000233 0.000036
0.000435 0.000236 0.000044
0.000437 0.000240 0.000052
0.000439 0.000243 0.000060
0.000440 0.000247 0.000068
0.000441 0.000251 0.000076
0.000441 0.000254 0.000085
0.000441 0.000258 0.000093
0.000440 0.000261 0.000101
0.000439 0.000264 0.000110
0.000438 0.000268 0.000118
0.000437 0.000271 0.000126
0.000435 0.000274 0.000135
0.000433 0.000278 0.000143
0.000431 0.000281 0.000151
0.000429 0.000284 0.000159
0.000426 0.000287 0.000168
0.000424 0.000290 0.000176
0.000421 0.000292 0.000184
0.000419 0.000295 0.000192
0.000416 0.000298 0.000200
0.000413 0.000301 0.000209
0.000410 0.000303 0.000217
0.000408 0.000306 0.000225
0.000405 0.000309 0.000233
0.000402 0.000312 0.000241
0.000400 0.000314 0.000250
0.000397 0.000317 0.000258
0.000395 0.000320 0.000266
0.000393 0.000323 0.000275
0.000391 0.000325 0.000283
0.000390 0.000328 0.000292
0.000389 0.000331 0.000300
0.000389 0.000334 0.000309
0.000389 0.000337 0.000317
0.000389 0.000340 0.000326
0.000391 0.000343 0.000334
0.000393 0.000346 0.000342
0.000396 0.000350 0.000350
0.000400 0.000353 0.000358
0.000404 0.000356 0.000365
0.000410 0.000359 0.000371
0.000416 0.000363 0.000377
0.000423 0.000366 0.000382
0.000430 0.000369 0.000386
0.000438 0.000372 0.000390
0.000446 0.000375 0.000392
0.000454 0.000378 0.000394
0.000463 0.000381 0.000396
0.000472 0.000383 0.000396
0.000480 0.000386 0.000397
0.000489 0.000388 0.000396
0.000498 0.000391 0.000396
0.000506 0.000393 0.000395
0.000515 0.000395 0.000393
0.000524 0.000397 0.000392
0.000533 0.000399 0.000390
0.000541 0.000400 0.000388
0.000550 0.000402 0.000386
0.000558 0.000404 0.000383
0.000567 0.000405 0.000381
CELLS  127 381
2 0 1 
2 1 2 
2 2 3 
2 3 4 
2 4 5 
2 5 6 
2 6 7 
2 7 8 
2 8 9 
2 9 10 
2 10 11 
2 11 12 
2 12 13 
2 13 14 
2 14 15 
2 15 16 
2 16 17 
2 17 18 
2 18 19 
2 19 20 
2 20 21 
2 21 22 
2 22 23 
2 23 24 
2 24 25 
2 25 26 
2 26 27 
2 27 28 
2 28 29 
2 29 30 
2 30 31 
2 31 32 
2 32 33 
2 33 34 
2 34 35 
2 35 36 
2 36 37 
2 37 38 
2 38 39 
2 39 40 
2 40 41 
2 41 42 
2 42 43 
2 43 44 
2 44 45 
2 45 46 
2 46 47 
2 47 48 
2 48 49 
2 49 50 
2 50 51 
2 51 52 
2 52 53 
2 53 54 
2 54 55 
2 55 56 
2 56 57 
2 57 58 
2 58 59 
2 59 60 
2 60 61 
2 61 62 
2 62 63 
2 63 64 
2 64 65 
2 65 66 
2 66 67 
2 67 68 
2 68 69 
2 69 70 
2 70 71 
2 71 72 
2 72 73 
2 73 74 
2 74 75 
2 75 76 
2 76 77 
2 77 78 
2 78 79 
2 79 80 
2 80 81 
2 81 82 
2 82 83 
2 83 84 
2 84 85 
2 85 86 
2 86 87 
2 87 88 
2 88 89 
2 89 90 
2 90 91 
2 91 92 
2 92 93 
2 93 94 
2 94 95 
2 95 96 
2 96 97 
2 97 98 
2 98 99 
2 99 100 
2 100 101 
2 101 102 
2 102 103 
2 103 104 
2 104 105 
2 105 106 
2 106 107 
2 107 108 
2 108 109 
2 109 110 
2 110 111 
2 111 112 
2 112 113 
2 113 114 
2 114 115 
2 115 116 
2 116 117 
2 117 118 
2 118 119 
2 119 120 
2 120 121 
2 121 122 
2 122 123 
2 123 124 
2 124 125 
2 125 126 
2 126 127 
CELL_TYPES  127
3
3
3
3
3
3
3
3
3
3
3
3
3
3
3
3
3
3
3
3
3
3
3
3
3
3
3
3
3
3
3
3
3
3
3
3
3
3
3
3
3
3
3
3
3
3
3
3
3
3
3
3
3
3
3
3
3
3
3
3
3
3
3
3
3
3
3
3
3
3
3
3
3
3
3
3
3
3
3
3
3
3
3
3
3
3
3
3
3
3
3
3
3
3
3
3
3
3
3
3
3
3
3
3
3
3
3
3
3
3
3
3
3
3
3
3
3
3
3
3
3
3
3
3
3
3
3
POINT_DATA  128
VECTORS Position float
-0.000000 -0.000000 -0.000000
0.000001 0.000004 0.000008
0.000003 0.000007 0.000016
0.000005 0.000011 0.000024
0.000006 0.000016 0.000032
0.000008 0.000020 0.000039
0.000010 0.000025 0.000047
0.000013 0.000031 0.000053
0.000016 0.000037 0.000060
0.000019 0.000043 0.000066
0.000022 0.000050 0.000071
0.000026 0.000057 0.000075
0.000030 0.000064 0.000079
0.000034 0.000071 0.000082
0.000039 0.000078 0.000084
0.000045 0.000085 0.000086
0.000050 0.000092 0.000086
0.000056 0.000099 0.000087
0.000063 0.000106 0.000086
0.000069 0.000112 0.000085
0.000076 0.000118 0.000083
0.000083 0.000123 0.000081
0.000090 0.000128 0.000078
0.000097 0.000132 0.000075
0.000104 0.000136 0.000071
0.000112 0.000140 0.000067
0.000119 0.000144 0.000063
0.000126 0.000147 0.000059
0.000134 0.000150 0.000055
0.000141 0.000153 0.000050
0.000148 0.000155 0.000045
0.000156 0.000158 0.000041
0.000163 0.000160 0.000036
0.000171 0.000162 0.000032
0.000178 0.000164 0.000027
0.000186 0.000166 0.000023
0.000194 0.000168 0.000018
0.000201 0.000169 0.000014
0.000209 0.000171 0.000010
0.000217 0.000172 0.000005
0.000225 0.000174 0.000002
0.000233 0.000175 -0.000002
0.000242 0.000176 -0.000006
0.000250 0.000177 -0.000009
0.000258 0.000178 -0.000012
0.000267 0.000180 -0.000015
0.000275 0.000181 -0.000018
0.000284 0.000182 -0.000020
0.000293 0.000183 -0.000022
0.000302 0.000184 -0.000023
0.000311 0.000186 -0.000025
0.000319 0.000187 -0.000025
0.000328 0.000189 -0.000026
0.000337 0.000191 -0.000026
0.000346 0.000193 -0.000025
0.000355 0.000195 -0.000024
0.000363 0.000197 -0.000022
0.000372 0.000200 -0.000019
0.000380 0.000202 -0.000016
0.000388 0.000205 -0.000013
0.000395 0.000208 -0.000008
0.000402 0.000211 -0.000003
0.000408 0.000215 0.000002
0.000414 0.000218 0.000008
0.000420 0.000222 0.000014
0.000424 0.000225 0.000021
0.000428 0.000229 0.000028
0.000432 0.000233 0.000036
0.000435 0.000236 0.000044
0.000437 0.000240 0.000052
0.000439 0.000243 0.000060
0.000440 0.000247 0.000068
0.000441 0.000251 0.000076
0.000441 0.000254 0.000085
0.000441 0.000258 0.000093
0.000440 0.000261 0.000101
0.000439 0.000264 0.000110
0.000438 0.000268 0.000118
0.000437 0.000271 0.000126
0.000435 0.000274 0.000135
0.000433 0.000278 0.000143
0.000431 0.000281 0.000151
0.000429 0.000284 0.000159
0.000426 0.000287 0.000168
0.000424 0.000290 0.000176
0.000421 0.000292 0.000184
0.000419 0.000295 0.000192
0.000416 0.000298 0.000200
0.000413 0.000301 0.000209
0.000410 0.000303 0.000217
0.000408 0.000306 0.000225
0.000405 0.000309 0.000233
0.000402 0.000312 0.000241
0.000400 0.000314 0.000250
0.000397 0.000317 0.000258
0.000395 0.000320 0.000266
0.000393 0.000323 0.000275
0.000391 0.000325 0.000283
0.000390 0.000328 0.000292
0.000389 0.000331 0.000300
0.000389 0.000334 0.000309
0.000389 0.000337 0.000317
0.000389 0.000340 0.000326
0.000391 0.000343 0.000334
0.000393 0.000346 0.000342
0.000396 0.000350 0.000350
0.000400 0.000353 0.000358
0.000404 0.000356 0.000365
0.000410 0.000359 0.000371
0.000416 0.000363 0.000377
0.000423 0.000366 0.000382
0.000430 0.000369 0.000386
0.000438 0.000372 0.000390
0.000446 0.000375 0.000392
0.000454 0.000378 0.000394
0.000463 0.000381 0.000396
0.000472 0.000383 0.000396
0.000480 0.000386 0.000397
0.000489 0.000388 0.000396
0.000498 0.000391 0.000396
0.000506 0.000393 0.000395
0.000515 0.000395 0.000393
0.000524 0.000397 0.000392
0.000533 0.000399 0.000390
0.000541 0.000400 0.000388
0.000550 0.000402 0.000386
0.000558 0.000404 0.000383
0.000567 0.000405 0.000381
VECTORS Rotation float
-0.000000 0.417979 -0.177604
0.001396 0.424294 -0.181018
0.005763 0.443058 -0.191412
0.013580 0.473418 -0.209082
0.025627 0.513876 -0.234509
0.043182 0.562857 -0.268750
0.068014 0.618381 -0.313347
0.102457 0.678067 -0.370401
0.148566 0.738073 -0.441309
0.209762 0.795939 -0.529502
0.288272 0.847716 -0.636711
0.384771 0.889471 -0.763124
0.497770 0.917834 -0.906968
0.621938 0.930083 -1.062569
0.747279 0.925037 -1.219216
0.865395 0.903610 -1.368327
0.969268 0.868390 -1.502442
1.056065 0.822841 -1.618432
1.126090 0.770529 -1.716373
1.181221 0.714783 -1.797908
1.224287 0.657952 -1.865873
1.257483 0.602421 -1.922213
1.282978 0.549653 -1.969022
1.302507 0.500573 -2.007982
1.317335 0.455900 -2.040206
1.328500 0.415769 -2.066655
1.336725 0.380255 -2.087875
1.342563 0.349205 -2.104245
1.346483 0.322097 -2.116146
1.348828 0.298488 -2.123827
1.349890 0.277868 -2.127563
1.349926 0.259574 -2.127698
1.349152 0.243114 -2.124584
1.347745 0.227957 -2.118557
1.345878 0.213976 -2.110039
1.343633 0.200659 -2.099130
1.341145 0.188155 -2.086250
1.338432 0.176216 -2.071280
1.335579 0.165096 -2.054481
1.332581 0.154832 -2.035655
1.329470 0.145722 -2.014876
1.326246 0.138019 -1.992074
1.322895 0.131965 -1.967174
1.319358 0.127716 -1.939857
1.315634 0.125488 -1.910361
1.311634 0.125387 -1.878393
1.307303 0.127509 -1.844051
1.302542 0.131914 -1.807244
1.297195 0.138674 -1.767602
1.291138 0.147768 -1.725160
1.284166 0.159203 -1.679561
1.276051 0.172931 -1.630470
1.266548 0.188818 -1.577641
1.255381 0.206667 -1.520799
1.242266 0.226189 -1.459723
1.226902 0.247029 -1.394180
1.209055 0.268694 -1.324195
1.188530 0.290643 -1.249836
1.165216 0.312287 -1.171314
1.139117 0.333013 -1.089004
1.110394 0.352215 -1.003504
1.079384 0.369332 -0.915655
1.046339 0.384015 -0.825817
1.012182 0.395818 -0.735956
0.977073 0.404782 -0.645860
0.942536 0.410783 -0.558771
0.908356 0.414228 -0.473515
0.875264 0.415399 -0.391406
0.844249 0.414734 -0.314494
0.815404 0.412731 -0.242745
0.788348 0.409732 -0.175060
0.763903 0.406126 -0.113440
0.741528 0.402050 -0.056533
0.721235 0.397585 -0.004399
0.702986 0.392733 0.043007
0.686916 0.387517 0.085261
0.672535 0.381739 0.123590
0.659930 0.375411 0.157693
0.648990 0.368541 0.187793
0.639590 0.361204 0.214137
0.631600 0.353549 0.236979
0.624798 0.345693 0.256834
0.619219 0.338085 0.273475
0.614592 0.330803 0.287572
0.610861 0.324184 0.299169
0.607969 0.318503 0.308327
0.605777 0.313755 0.315378
0.604287 0.310057 0.320235
0.603506 0.307395 0.322804
0.603479 0.305710 0.322892
0.604287 0.304918 0.320205
0.606039 0.304934 0.314370
0.608847 0.305675 0.305027
0.612948 0.307099 0.291431
0.618434 0.309131 0.273341
0.625585 0.311774 0.249934
0.634556 0.314993 0.220833
0.645739 0.318833 0.184948
0.659305 0.323246 0.141955
0.675950 0.328313 0.089949
0.695583 0.333833 0.029551
0.718698 0.339737 -0.040399
0.745415 0.345789 -0.119894
0.775986 0.351710 -0.209356
0.810441 0.357086 -0.308642
0.848062 0.361388 -0.415652
0.888193 0.364189 -0.528736
0.929897 0.365136 -0.645672
0.972080 0.364017 -0.763982
1.013653 0.360766 -0.881250
1.053353 0.355504 -0.994506
1.090512 0.348419 -1.102297
1.124299 0.339812 -1.202447
1.154468 0.329925 -1.294245
1.180989 0.318929 -1.377444
1.203928 0.306968 -1.451953
1.223536 0.294128 -1.518186
1.240094 0.280518 -1.576618
1.253924 0.266282 -1.627838
1.265334 0.251645 -1.672396
1.274591 0.236962 -1.710666
1.281978 0.222633 -1.743099
1.287720 0.209211 -1.769896
1.292063 0.197197 -1.791419
1.295196 0.187185 -1.807820
1.297306 0.179613 -1.819392
1.298511 0.174926 -1.826224
1.298904 0.173330 -1.828493
VECTORS ControlForce float
0.000000 0.000000 0.000000
0.000004 -0.000381 0.000021
0.000026 -0.000728 0.000029
0.000071 -0.001023 0.000018
0.000136 -0.001252 -0.000016
0.000211 -0.001389 -0.000070
0.000281 -0.001412 -0.000134
0.000323 -0.001330 -0.000196
0.000314 -0.001182 -0.000244
0.000251 -0.000984 -0.000275
0.000132 -0.000761 -0.000289
-0.000033 -0.000529 -0.000292
-0.000216 -0.000284 -0.000291
-0.000389 -0.000033 -0.000288
-0.000546 0.000182 -0.000287
-0.000656 0.000362 -0.000292
-0.000716 0.000484 -0.000303
-0.000728 0.000533 -0.000318
-0.000680 0.000540 -0.000336
-0.000582 0.000512 -0.000348
-0.000470 0.000422 -0.000354
-0.000332 0.000316 -0.000354
-0.000171 0.000213 -0.000344
-0.000002 0.000113 -0.000324
0.000160 0.000023 -0.000295
0.000300 -0.000049 -0.000259
0.000411 -0.000084 -0.000220
0.000494 -0.000071 -0.000180
0.000543 -0.000020 -0.000141
0.000560 0.000057 -0.000105
0.000546 0.000146 -0.000073
0.000498 0.000211 -0.000047
0.000416 0.000232 -0.000027
0.000309 0.000211 -0.000013
0.000193 0.000179 -0.000003
0.000070 0.000131 0.000002
-0.000043 0.000100 0.000005
-0.000141 0.000068 0.000006
-0.000216 0.000041 0.000006
-0.000264 0.000010 0.000006
-0.000275 -0.000007 0.000007
-0.000250 0.000007 0.000008
-0.000202 0.000035 0.000008
-0.000157 0.000040 0.000008
-0.000121 0.000033 0.000009
-0.000104 0.000002 0.000011
-0.000099 -0.000036 0.000017
-0.000100 -0.000077 0.000027
-0.000103 -0.000134 0.000042
-0.000092 -0.000167 0.000062
-0.000068 -0.000176 0.000085
-0.000038 -0.000184 0.000110
0.000002 -0.000176 0.000136
0.000060 -0.000131 0.000158
0.000123 -0.000071 0.000174
0.000185 0.000004 0.000181
0.000234 0.000078 0.000178
0.000268 0.000144 0.000165
0.000290 0.000204 0.000144
0.000305 0.000258 0.000116
0.000315 0.000308 0.000081
0.000316 0.000357 0.000040
0.000307 0.000406 -0.000006
0.000280 0.000434 -0.000056
0.000239 0.000434 -0.000105
0.000185 0.000387 -0.000147
0.000131 0.000321 -0.000178
0.000088 0.000243 -0.000197
0.000062 0.000135 -0.000205
0.000053 0.000011 -0.000202
0.000056 -0.000102 -0.000191
0.000068 -0.000206 -0.000172
0.000078 -0.000281 -0.000151
0.000078 -0.000318 -0.000128
0.000068 -0.000319 -0.000106
0.000045 -0.000292 -0.000086
-0.000002 -0.000235 -0.000069
-0.000065 -0.000159 -0.000055
-0.000134 -0.000079 -0.000043
-0.000195 -0.000007 -0.000033
-0.000244 0.000048 -0.000025
-0.000274 0.000082 -0.000019
-0.000272 0.000092 -0.000013
-0.000242 0.000086 -0.000008
-0.000173 0.000070 -0.000002
-0.000066 0.000051 0.000003
0.000047 0.000042 0.000010
0.000151 0.000048 0.000017
0.000237 0.000071 0.000025
0.000300 0.000106 0.000036
0.000339 0.000148 0.000049
0.000361 0.000193 0.000065
0.000374 0.000241 0.000086
0.000373 0.000295 0.000111
0.000376 0.000361 0.000142
0.000386 0.000438 0.000180
0.000399 0.000523 0.000227
0.000398 0.000605 0.000285
0.000361 0.000665 0.000353
0.000265 0.000685 0.000428
0.000112 0.000639 0.000501
-0.000090 0.000515 0.000562
-0.000323 0.000316 0.000595
-0.000558 0.000061 0.000584
-0.000756 -0.000228 0.000519
-0.000879 -0.000530 0.000398
-0.000895 -0.000810 0.000225
-0.000795 -0.001022 0.000018
-0.000589 -0.001121 -0.000197
-0.000312 -0.001085 -0.000388
-0.000007 -0.000924 -0.000530
0.000278 -0.000667 -0.000608
0.000500 -0.000375 -0.000622
0.000635 -0.000095 -0.000582
0.000674 0.000142 -0.000505
0.000621 0.000307 -0.000412
0.000494 0.000394 -0.000317
0.000315 0.000406 -0.000233
0.000110 0.000367 -0.000167
-0.000089 0.000310 -0.000121
-0.000251 0.000277 -0.000090
-0.000363 0.000262 -0.000070
-0.000415 0.000265 -0.000056
-0.000412 0.000257 -0.000044
-0.000357 0.000232 -0.000033
-0.000264 0.000175 -0.000023
-0.000136 0.000106 -0.000011
0.000000 0.000000 -0.000000
VECTORS ControlTorque float
-0.000000 -0.000002 0.000000
0.000007 -0.000002 0.000000
0.000005 -0.000002 0.000000
0.000004 -0.000002 0.000000
0.000004 -0.000002 0.000000
0.000003 -0.000002 0.000001
0.000003 -0.000003 0.000001
0.000001 -0.000001 0.000001
0.000002 -0.000002 0.000002
0.000000 -0.000002 0.000002
-0.000000 -0.000001 0.000002
-0.000001 -0.000001 0.000002
-0.000000 -0.000001 0.000002
-0.000002 0.000000 0.000002
-0.000001 0.000000 0.000002
-0.000001 0.000001 0.000001
-0.000001 0.000001 0.000001
-0.000001 0.000001 0.000001
-0.000002 0.000002 -0.000000
-0.000001 0.000001 -0.000000
-0.000002 0.000002 -0.000001
-0.000002 0.000002 -0.000001
-0.000002 0.000001 -0.000001
-0.000002 0.000002 -0.000002
-0.000001 0.000001 -0.000001
-0.000002 0.000002 -0.000001
-0.000002 0.000002 -0.000001
-0.000001 0.000001 -0.000001
-0.000001 0.000002 -0.000001
-0.000001 0.000001 -0.000001
-0.000001 0.000001 -0.000001
-0.000001 0.000001 -0.000001
-0.000000 0.000001 -0.000000
-0.000001 0.000001 -0.000001
-0.000000 0.000001 0.000000
-0.000000 0.000001 -0.000000
-0.000000 0.000001 0.000000
-0.000000 0.000001 -0.000000
-0.000000 0.000001 -0.000000
-0.000000 0.000001 -0.000000
-0.000000 0.000001 -0.000000
-0.000000 0.000001 -0.000001
-0.000000 0.000001 -0.000001
-0.000000 0.000001 -0.000001
-0.000000 0.000001 -0.000001
-0.000000 0.000001 -0.000001
-0.000000 0.000001 -0.000001
-0.000000 0.000001 -0.000001
-0.000000 0.000001 -0.000001
-0.000000 0.000001 -0.000001
-0.000000 0.000001 -0.000001
-0.000000 0.000001 -0.000001
-0.000000 0.000001 -0.000001
-0.000000 0.000001 -0.000001
-0.000000 0.000002 -0.000001
-0.000000 0.000001 -0.000001
-0.000000 0.000001 -0.000001
-0.000000 0.000001 -0.000001
-0.000000 0.000001 -0.000000
-0.000000 0.000001 -0.000000
-0.000000 0.000000 -0.000000
-0.000000 0.000001 -0.000000
0.000000 -0.000001 0.000001
-0.000000 0.000001 -0.000001
0.000001 -0.000003 0.000001
0.000000 0.000000 -0.000000
0.000000 -0.000001 0.000000
0.000001 -0.000002 0.000001
0.000001 -0.000002 0.000001
0.000000 -0.000000 -0.000000
0.000001 -0.000003 0.000001
0.000000 -0.000001 0.000000
0.000000 -0.000002 0.000001
0.000000 -0.000001 0.000001
0.000000 -0.000002 0.000001
-0.000000 -0.000001 0.000000
-0.000000 -0.000002 0.000001
-0.000000 -0.000001 0.000001
-0.000000 -0.000001 0.000000
-0.000000 -0.000001 0.000000
-0.000000 -0.000001 0.000000
0.000000 -0.000001 0.000001
-0.000000 -0.000001 0.000000
0.000000 -0.000001 0.000000
0.000000 -0.000001 0.000000
0.000000 -0.000001 0.000000
0.000000 -0.000001 0.000000
0.000000 -0.000001 0.000000
0.000000 -0.000001 0.000000
0.000000 -0.000001 0.000000
0.000000 -0.000001 0.000000
0.000000 -0.000001 0.000000
0.000000 -0.000002 0.000001
0.000000 -0.000001 0.000001
0.000000 -0.000002 0.000001
0.000000 -0.000002 0.000001
0.000000 -0.000003 0.000001
0.000000 -0.000002 0.000001
0.000000 -0.000004 0.000002
0.000000 -0.000002 0.000001
0.000001 -0.000004 0.000001
0.000001 -0.000003 0.000001
0.000001 -0.000004 0.000001
0.000001 -0.000004 0.000001
0.000001 -0.000002 0.000001
0.000001 -0.000002 0.000000
0.000001 -0.000001 -0.000000
0.000001 -0.000000 -0.000001
0.000001 -0.000000 -0.000001
0.000000 0.000002 -0.000001
0.000000 0.000001 -0.000001
-0.000001 0.000003 -0.000001
-0.000001 0.000003 -0.000001
-0.000001 0.000003 -0.000001
-0.000001 0.000003 -0.000001
-0.000001 0.000003 -0.000000
-0.000001 0.000003 -0.000000
-0.000001 0.000003 -0.000000
-0.000001 0.000002 -0.000000
-0.000001 0.000002 -0.000000
-0.000001 0.000002 -0.000000
-0.000001 0.000002 -0.000000
-0.000001 0.000002 -0.000000
-0.000001 0.000002 -0.000001
-0.000001 0.000002 -0.000001
-0.000001 0.000002 -0.000001
-0.000001 0.000002 -0.000001
-0.000001 0.000002 -0.000001
VECTORS Curvature float
-400.766553 196.093374 0.211397
-1286.207655 637.288322 -1.515165
-2787.444247 1403.477495 -2.858647
-3963.025885 2055.100504 -3.911095
-5026.771231 2719.260066 -4.975058
-5936.417949 3393.270400 -5.602168
-6744.750881 4133.267815 -6.628713
-7194.355034 4775.332038 -4.315947
-7422.686697 5415.861889 -4.743871
-7581.084332 6125.177949 -1.106946
-7429.003554 6704.238075 3.370089
-7150.567102 7247.216901 8.103930
-6847.117716 7825.850619 13.107291
-6384.772602 8221.500494 15.663716
-5849.969986 8504.075889 14.049034
-5352.644533 8736.247993 9.686720
-4810.489892 8777.075576 4.558686
-4303.834177 8709.603415 0.551857
-3809.060674 8464.459610 -2.578001
-3371.543304 8145.334273 -3.229668
-2977.976801 7718.099825 -4.515398
-2591.487834 7134.083815 -4.219396
-2256.691728 6544.040793 -3.817495
-1938.470254 5904.905216 -3.522348
-1632.995575 5260.249653 -2.856706
-1334.659322 4642.594763 -2.470058
-1019.807573 4015.723338 -2.030548
-700.308906 3449.129305 -1.535839
-376.050873 2953.577023 -1.212359
-47.853318 2497.201783 -0.897461
273.504794 2124.583183 -0.644426
576.653464 1823.101536 -0.463109
871.858411 1594.257451 -0.371825
1119.014014 1387.840788 -0.213693
1364.814658 1231.932856 -0.280060
1577.743662 1099.714629 -0.094600
1776.425978 967.066017 -0.210849
1976.644563 845.835283 -0.038304
2158.275156 697.660837 -0.093963
2361.665413 537.348832 0.044416
2535.770556 336.855587 0.111761
2701.465513 110.143241 0.234394
2911.894404 -146.739268 0.293917
3106.948784 -424.531472 0.473598
3286.769688 -722.968370 0.560870
3493.965745 -1040.352942 0.701444
3656.166011 -1357.235596 0.798530
3869.848336 -1702.529011 0.981804
4088.075946 -2057.285956 1.056121
4295.231167 -2410.938665 1.228393
4553.113848 -2791.333598 1.384392
4826.187618 -3177.128332 1.484694
5113.385542 -3562.581070 1.575934
5411.960955 -3941.293444 1.565296
5727.477127 -4314.454857 1.546617
6041.773065 -4666.638992 1.282414
6333.289439 -4980.583115 0.969687
6606.812278 -5260.708770 0.515818
6845.103728 -5495.616982 -0.038728
7043.892764 -5684.685233 -0.635191
7144.841009 -5784.507298 -1.388307
7268.299736 -5894.141033 -1.520106
7226.099624 -5870.257515 -2.519069
7208.548098 -5864.364128 -1.982323
7001.437032 -5719.130059 -2.700561
6695.401287 -5497.554062 -1.787279
6600.114033 -5468.544305 -1.751498
6192.592570 -5196.891492 -1.247289
5645.880192 -4815.190877 -0.711366
5343.605472 -4646.629952 -0.547885
4917.125821 -4368.189836 -0.077039
4422.757056 -4009.399601 -0.108776
4106.002465 -3783.216905 0.016064
3762.243172 -3496.027719 -0.006827
3367.868141 -3120.704125 0.135287
3064.011615 -2786.447742 -0.072198
2855.281767 -2506.214497 0.066264
2594.196794 -2154.768496 0.063056
2381.303853 -1838.035199 0.105311
2165.013297 -1528.974504 0.173257
2007.927709 -1279.513500 0.119357
1803.933707 -1033.486071 0.302928
1588.547734 -814.228847 0.172767
1419.009141 -656.539104 0.237587
1171.607874 -492.768351 0.224910
952.156901 -364.409698 0.149606
745.563067 -251.069593 0.142537
511.263874 -124.184719 0.095899
278.635784 16.849539 0.059057
37.651429 183.890173 0.020302
-219.727747 390.719159 -0.020244
-480.600720 619.470967 -0.055912
-785.891679 916.099158 -0.113833
-1113.340996 1250.172261 -0.143120
-1472.084685 1623.091462 -0.230682
-1865.791474 2033.176757 -0.255394
-2329.788648 2508.748290 -0.415538
-2820.905463 2995.339288 -0.389590
-3462.232179 3611.767617 -0.731208
-4160.397879 4247.255783 -0.538912
-4826.357162 4799.552109 -0.749136
-5608.777812 5409.987510 -0.569804
-6398.401963 5960.850362 -0.444471
-7327.139428 6568.735361 -0.092002
-8159.110559 7014.617034 0.679431
-8812.596889 7244.254756 1.241750
-9369.955625 7347.416157 1.812743
-9736.759583 7273.109659 2.122251
-9949.020535 7079.400359 2.215466
-9884.626778 6712.611123 1.839743
-9635.164344 6269.271579 1.520489
-9208.008334 5777.131765 0.819210
-8563.968272 5229.181516 0.401672
-7897.288604 4751.425393 0.087517
-7166.073152 4313.002146 -0.206203
-6416.812832 3931.285705 -0.321541
-5691.011317 3613.251886 -0.462516
-4992.393796 3340.652304 -0.555260
-4345.042874 3107.730489 -0.646349
-3727.823741 2878.420294 -0.803268
-3154.699385 2646.162650 -0.836574
-2613.393971 2383.915945 -0.963026
-2106.224961 2085.161741 -0.894232
-1634.242547 1742.916271 -0.874922
-1189.257130 1352.210446 -0.689292
-784.627090 937.506951 -0.516064
-350.330733 431.312067 -0.265233
-111.057532 139.193055 0.033808
VECTORS LocalRotation float
-0.062917 -0.625592 0.000006
-0.070573 -0.621810 -0.000000
-0.088943 -0.612607 -0.000020
-0.119379 -0.597014 -0.000050
-0.160163 -0.575354 -0.000091
-0.209963 -0.547587 -0.000139
-0.267408 -0.513493 -0.000194
-0.330167 -0.473383 -0.000243
-0.396576 -0.427081 -0.000285
-0.464413 -0.374901 -0.000311
-0.532294 -0.316881 -0.000301
-0.598457 -0.253569 -0.000249
-0.661905 -0.185247 -0.000153
-0.721628 -0.112816 -0.000023
-0.777115 -0.036962 0.000112
-0.827805 0.041049 0.000219
-0.873812 0.120327 0.000284
-0.915081 0.199506 0.000307
-0.951809 0.277256 0.000298
-0.984374 0.352583 0.000272
-1.013065 0.424264 0.000237
-1.038287 0.491522 0.000197
-1.060266 0.553531 0.000161
-1.079262 0.609904 0.000127
-1.095447 0.660500 0.000098
-1.108862 0.705267 0.000074
-1.119503 0.744394 0.000054
-1.127294 0.778207 0.000038
-1.132162 0.807167 0.000025
-1.134082 0.831845 0.000016
-1.133057 0.852837 0.000009
-1.129202 0.870736 0.000004
-1.122637 0.886224 0.000000
-1.113666 0.899661 -0.000003
-1.102370 0.911576 -0.000005
-1.089123 0.922073 -0.000007
-1.073860 0.931478 -0.000008
-1.056918 0.939661 -0.000009
-1.038140 0.946671 -0.000010
-1.017731 0.952247 -0.000010
-0.995587 0.956200 -0.000009
-0.971858 0.958225 -0.000008
-0.946350 0.958059 -0.000005
-0.919179 0.955480 -0.000002
-0.890187 0.950277 0.000003
-0.859552 0.942310 0.000009
-0.827188 0.931458 0.000015
-0.793048 0.917578 0.000024
-0.757080 0.900584 0.000033
-0.719091 0.880337 0.000043
-0.678992 0.856761 0.000055
-0.636531 0.829741 0.000068
-0.591537 0.799232 0.000082
-0.543888 0.765262 0.000096
-0.493440 0.727873 0.000110
-0.440178 0.687229 0.000123
-0.384150 0.643551 0.000133
-0.325551 0.597174 0.000140
-0.264635 0.548465 0.000142
-0.201753 0.497846 0.000139
-0.137494 0.445904 0.000130
-0.072118 0.392931 0.000117
-0.006668 0.339808 0.000098
0.058898 0.286507 0.000078
0.122869 0.234359 0.000057
0.185440 0.183119 0.000036
0.245530 0.133556 0.000020
0.303008 0.085637 0.000007
0.356775 0.040165 -0.000002
0.406922 -0.003012 -0.000008
0.453064 -0.043550 -0.000011
0.495646 -0.081745 -0.000011
0.534254 -0.117021 -0.000012
0.569726 -0.149838 -0.000012
0.601818 -0.179619 -0.000011
0.631130 -0.206540 -0.000011
0.657809 -0.230394 -0.000011
0.682422 -0.251446 -0.000010
0.704948 -0.269523 -0.000010
0.725575 -0.284800 -0.000008
0.744542 -0.297565 -0.000007
0.761685 -0.307967 -0.000005
0.777154 -0.316392 -0.000003
0.790718 -0.323025 -0.000001
0.802409 -0.328212 0.000001
0.812116 -0.332130 0.000003
0.819786 -0.334910 0.000004
0.825467 -0.336607 0.000005
0.829040 -0.337092 0.000006
0.830471 -0.336184 0.000006
0.829647 -0.333586 0.000006
0.826484 -0.329023 0.000006
0.820703 -0.322014 0.000005
0.812164 -0.312275 0.000004
0.800441 -0.299246 0.000002
0.785372 -0.282740 -0.000000
0.766293 -0.262085 -0.000003
0.742992 -0.237186 -0.000007
0.714354 -0.207071 -0.000012
0.680191 -0.171849 -0.000018
0.639498 -0.130884 -0.000023
0.592236 -0.084644 -0.000029
0.537608 -0.032911 -0.000034
0.475291 0.023976 -0.000036
0.405452 0.085234 -0.000034
0.328711 0.149708 -0.000025
0.246381 0.215779 -0.000011
0.159780 0.282046 0.000007
0.070542 0.347107 0.000026
-0.019191 0.409507 0.000045
-0.107699 0.468370 0.000060
-0.192850 0.522807 0.000070
-0.273365 0.572670 0.000076
-0.347971 0.617904 0.000078
-0.416157 0.658936 0.000078
-0.477665 0.696269 0.000075
-0.532470 0.730418 0.000072
-0.580841 0.761903 0.000067
-0.623117 0.791099 0.000062
-0.659653 0.818191 0.000055
-0.690837 0.843223 0.000048
-0.716940 0.865985 0.000040
-0.738333 0.886243 0.000031
-0.755254 0.903560 0.000023
-0.768050 0.917587 0.000016
-0.776967 0.927931 0.000011
-0.782117 0.934142 0.000007
-0.784202 0.936720 0.000006
VECTORS q1 float
0.984270 0.000000 -0.176671
0.983763 -0.001272 -0.179466
0.982190 -0.005207 -0.187816
0.979417 -0.012086 -0.201487
0.975236 -0.022315 -0.220038
0.969321 -0.036509 -0.243071
0.961252 -0.055376 -0.270052
0.950518 -0.079652 -0.300285
0.936773 -0.109500 -0.332363
0.919291 -0.145679 -0.365624
0.897611 -0.188118 -0.398631
0.871353 -0.236402 -0.429951
0.840077 -0.290082 -0.458392
0.803537 -0.348266 -0.482741
0.762210 -0.409014 -0.501741
0.716249 -0.471107 -0.514826
0.666493 -0.532655 -0.521599
0.613927 -0.592012 -0.522126
0.559714 -0.647752 -0.516854
0.505254 -0.698646 -0.506569
0.451529 -0.744218 -0.492201
0.400015 -0.783853 -0.474934
0.351631 -0.817630 -0.455891
0.307002 -0.845923 -0.436079
0.266672 -0.869179 -0.416431
0.230715 -0.888084 -0.397589
0.199179 -0.903248 -0.380094
0.171919 -0.915278 -0.364294
0.148476 -0.924809 -0.350261
0.128462 -0.932333 -0.338012
0.111429 -0.938274 -0.327453
0.096796 -0.943020 -0.318344
0.084124 -0.946850 -0.310481
0.072945 -0.949998 -0.303616
0.063104 -0.952581 -0.297669
0.054186 -0.954760 -0.292399
0.046261 -0.956560 -0.287841
0.039172 -0.958055 -0.283895
0.033107 -0.959241 -0.280644
0.028173 -0.960136 -0.278110
0.024646 -0.960730 -0.276387
0.022807 -0.961020 -0.275538
0.022937 -0.961000 -0.275594
0.025306 -0.960667 -0.276547
0.030121 -0.960014 -0.278328
0.037618 -0.959016 -0.280842
0.047931 -0.957648 -0.283924
0.061211 -0.955858 -0.287383
0.077685 -0.953561 -0.291008
0.097389 -0.950675 -0.294503
0.120475 -0.947072 -0.297557
0.147032 -0.942604 -0.299798
0.177023 -0.937115 -0.300795
0.210336 -0.930438 -0.300074
0.246728 -0.922408 -0.297135
0.285864 -0.912869 -0.291464
0.327171 -0.901723 -0.282586
0.369987 -0.888909 -0.270094
0.413540 -0.874431 -0.253684
0.456978 -0.858366 -0.233192
0.499395 -0.840877 -0.208640
0.539878 -0.822215 -0.180260
0.577870 -0.802553 -0.148241
0.612322 -0.782425 -0.113460
0.643236 -0.761881 -0.076051
0.669625 -0.741745 -0.037648
0.692090 -0.721809 0.001966
0.710523 -0.702423 0.041928
0.724880 -0.684104 0.080930
0.735665 -0.666872 0.118660
0.743447 -0.650488 0.155406
0.748434 -0.635477 0.189776
0.751193 -0.621558 0.222205
0.752108 -0.608807 0.252362
0.751572 -0.597278 0.279997
0.749989 -0.587133 0.304616
0.747669 -0.578128 0.326740
0.744932 -0.570366 0.346061
0.742039 -0.563800 0.362640
0.739191 -0.558352 0.376616
0.736535 -0.553918 0.388190
0.734129 -0.550330 0.397733
0.732078 -0.547544 0.405288
0.730339 -0.545362 0.411322