# vtk DataFile Version 2.0
VTK example
ASCII
DATASET UNSTRUCTURED_GRID
POINTS  128  float
-0.000186 -0.000133 -0.000189
-0.000178 -0.000130 -0.000191
-0.000170 -0.000127 -0.000194
-0.000161 -0.000123 -0.000196
-0.000153 -0.000120 -0.000198
-0.000145 -0.000117 -0.000200
-0.000137 -0.000114 -0.000202
-0.000128 -0.000111 -0.000204
-0.000120 -0.000108 -0.000206
-0.000112 -0.000104 -0.000207
-0.000103 -0.000101 -0.000208
-0.000095 -0.000098 -0.000209
-0.000087 -0.000094 -0.000209
-0.000078 -0.000091 -0.000208
-0.000070 -0.000087 -0.000207
-0.000062 -0.000083 -0.000206
-0.000055 -0.000078 -0.000203
-0.000047 -0.000074 -0.000200
-0.000041 -0.000069 -0.000197
-0.000034 -0.000065 -0.000192
-0.000028 -0.000060 -0.000187
-0.000023 -0.000055 -0.000182
-0.000018 -0.000051 -0.000176
-0.000014 -0.000046 -0.000169
-0.000010 -0.000042 -0.000162
-0.000007 -0.000037 -0.000155
-0.000005 -0.000033 -0.000147
-0.000003 -0.000030 -0.000139
-0.000001 -0.000026 -0.000131
0.000000 -0.000022 -0.000123
0.000001 -0.000019 -0.000114
0.000002 -0.000016 -0.000106
0.000002 -0.000013 -0.000097
0.000003 -0.000010 -0.000089
0.000003 -0.000008 -0.000080
0.000003 -0.000005 -0.000071
0.000003 -0.000002 -0.000063
0.000004 0.000000 -0.000054
0.000004 0.000003 -0.000045
0.000004 0.000006 -0.000037
0.000005 0.000009 -0.000028
0.000006 0.000013 -0.000020
0.000007 0.000016 -0.000012
0.000008 0.000020 -0.000004
0.000009 0.000024 0.000004
0.000011 0.000029 0.000012
0.000013 0.000034 0.000019
0.000015 0.000039 0.000026
0.000017 0.000044 0.000033
0.000020 0.000050 0.000039
0.000024 0.000056 0.000045
0.000027 0.000063 0.000051
0.000031 0.000069 0.000055
0.000036 0.000076 0.000060
0.000041 0.000083 0.000063
0.000046 0.000089 0.000066
0.000051 0.000096 0.000069
0.000057 0.000103 0.000071
0.000063 0.000109 0.000072
0.000070 0.000116 0.000073
0.000076 0.000122 0.000074
0.000083 0.000128 0.000074
0.000090 0.000133 0.000074
0.000097 0.000139 0.000074
0.000105 0.000144 0.000073
0.000113 0.000149 0.000072
0.000120 0.000153 0.000070
0.000128 0.000157 0.000069
0.000136 0.000162 0.000067
0.000144 0.000165 0.000065
0.000152 0.000169 0.000062
0.000160 0.000173 0.000060
0.000168 0.000176 0.000057
0.000176 0.000179 0.000054
0.000184 0.000182 0.000051
0.000192 0.000184 0.000048
0.000200 0.000187 0.000044
0.000208 0.000189 0.000041
0.000216 0.000190 0.000037
0.000224 0.000192 0.000033
0.000232 0.000193 0.000029
0.000240 0.000194 0.000026
0.000249 0.000194 0.000022
0.000257 0.000194 0.000019
0.000266 0.000194 0.000015
0.000274 0.000194 0.000012
0.000283 0.000193 0.000010
0.000291 0.000193 0.000007
0.000300 0.000192 0.000005
0.000309 0.000191 0.000004
0.000318 0.000191 0.000003
0.000327 0.000190 0.000002
0.000336 0.000190 0.000002
0.000345 0.000190 0.000002
0.000354 0.000190 0.000003
0.000363 0.000190 0.000005
0.000372 0.000190 0.000007
0.000380 0.000191 0.000010
0.000389 0.000193 0.000014
0.000396 0.000194 0.000018
0.000404 0.000196 0.000022
0.000411 0.000199 0.000028
0.000417 0.000202 0.000033
0.000423 0.000205 0.000040
0.000428 0.000209 0.000046
0.000432 0.000213 0.000053
0.000436 0.000217 0.000060
0.000439 0.000222 0.000067
0.000441 0.000226 0.000075
0.000443 0.000231 0.000082
0.000444 0.000236 0.000090
0.000444 0.000241 0.000098
0.000444 0.000245 0.000105
0.000444 0.000250 0.000113
0.000443 0.000255 0.000121
0.000442 0.000260 0.000129
0.000440 0.000264 0.000136
0.000438 0.000269 0.000144
0.000436 0.000274 0.000151
0.000434 0.000278 0.000158
0.000431 0.000283 0.000166
0.000429 0.000288 0.000173
0.000426 0.000293 0.000180
0.000423 0.000298 0.000187
0.000420 0.000303 0.000194
0.000416 0.000308 0.000201
0.000413 0.000313 0.000208
0.000410 0.000317 0.000215
CELLS  127 381
2 0 1 
2 1 2 
2 2 3 
2 3 4 
2 4 5 
2 5 6 
2 6 7 
2 7 8 
2 8 9 
2 9 10 
2 10 11 
2 11 12 
2 12 13 
2 13 14 
2 14 15 
2 15 16 
2 16 17 
2 17 18 
2 18 19 
2 19 20 
2 20 21 
2 21 22 
2 22 23 
2 23 24 
2 24 25 
2 25 26 
2 26 27 
2 27 28 
2 28 29 
2 29 30 
2 30 31 
2 31 32 
2 32 33 
2 33 34 
2 34 35 
2 35 36 
2 36 37 
2 37 38 
2 38 39 
2 39 40 
2 40 41 
2 41 42 
2 42 43 
2 43 44 
2 44 45 
2 45 46 
2 46 47 
2 47 48 
2 48 49 
2 49 50 
2 50 51 
2 51 52 
2 52 53 
2 53 54 
2 54 55 
2 55 56 
2 56 57 
2 57 58 
2 58 59 
2 59 60 
2 60 61 
2 61 62 
2 62 63 
2 63 64 
2 64 65 
2 65 66 
2 66 67 
2 67 68 
2 68 69 
2 69 70 
2 70 71 
2 71 72 
2 72 73 
2 73 74 
2 74 75 
2 75 76 
2 76 77 
2 77 78 
2 78 79 
2 79 80 
2 80 81 
2 81 82 
2 82 83 
2 83 84 
2 84 85 
2 85 86 
2 86 87 
2 87 88 
2 88 89 
2 89 90 
2 90 91 
2 91 92 
2 92 93 
2 93 94 
2 94 95 
2 95 96 
2 96 97 
2 97 98 
2 98 99 
2 99 100 
2 100 101 
2 101 102 
2 102 103 
2 103 104 
2 104 105 
2 105 106 
2 106 107 
2 107 108 
2 108 109 
2 109 110 
2 110 111 
2 111 112 
2 112 113 
2 113 114 
2 114 115 
2 115 116 
2 116 117 
2 117 118 
2 118 119 
2 119 120 
2 120 121 
2 121 122 
2 122 123 
2 123 124 
2 124 125 
2 125 126 
2 126 127 
CELL_TYPES  127
3
3
3
3
3
3
3
3
3
3
3
3
3
3
3
3
3
3
3
3
3
3
3
3
3
3
3
3
3
3
3
3
3
3
3
3
3
3
3
3
3
3
3
3
3
3
3
3
3
3
3
3
3
3
3
3
3
3
3
3
3
3
3
3
3
3
3
3
3
3
3
3
3
3
3
3
3
3
3
3
3
3
3
3
3
3
3
3
3
3
3
3
3
3
3
3
3
3
3
3
3
3
3
3
3
3
3
3
3
3
3
3
3
3
3
3
3
3
3
3
3
3
3
3
3
3
3
POINT_DATA  128
VECTORS Position float
-0.000186 -0.000133 -0.000189
-0.000178 -0.000130 -0.000191
-0.000170 -0.000127 -0.000194
-0.000161 -0.000123 -0.000196
-0.000153 -0.000120 -0.000198
-0.000145 -0.000117 -0.000200
-0.000137 -0.000114 -0.000202
-0.000128 -0.000111 -0.000204
-0.000120 -0.000108 -0.000206
-0.000112 -0.000104 -0.000207
-0.000103 -0.000101 -0.000208
-0.000095 -0.000098 -0.000209
-0.000087 -0.000094 -0.000209
-0.000078 -0.000091 -0.000208
-0.000070 -0.000087 -0.000207
-0.000062 -0.000083 -0.000206
-0.000055 -0.000078 -0.000203
-0.000047 -0.000074 -0.000200
-0.000041 -0.000069 -0.000197
-0.000034 -0.000065 -0.000192
-0.000028 -0.000060 -0.000187
-0.000023 -0.000055 -0.000182
-0.000018 -0.000051 -0.000176
-0.000014 -0.000046 -0.000169
-0.000010 -0.000042 -0.000162
-0.000007 -0.000037 -0.000155
-0.000005 -0.000033 -0.000147
-0.000003 -0.000030 -0.000139
-0.000001 -0.000026 -0.000131
0.000000 -0.000022 -0.000123
0.000001 -0.000019 -0.000114
0.000002 -0.000016 -0.000106
0.000002 -0.000013 -0.000097
0.000003 -0.000010 -0.000089
0.000003 -0.000008 -0.000080
0.000003 -0.000005 -0.000071
0.000003 -0.000002 -0.000063
0.000004 0.000000 -0.000054
0.000004 0.000003 -0.000045
0.000004 0.000006 -0.000037
0.000005 0.000009 -0.000028
0.000006 0.000013 -0.000020
0.000007 0.000016 -0.000012
0.000008 0.000020 -0.000004
0.000009 0.000024 0.000004
0.000011 0.000029 0.000012
0.000013 0.000034 0.000019
0.000015 0.000039 0.000026
0.000017 0.000044 0.000033
0.000020 0.000050 0.000039
0.000024 0.000056 0.000045
0.000027 0.000063 0.000051
0.000031 0.000069 0.000055
0.000036 0.000076 0.000060
0.000041 0.000083 0.000063
0.000046 0.000089 0.000066
0.000051 0.000096 0.000069
0.000057 0.000103 0.000071
0.000063 0.000109 0.000072
0.000070 0.000116 0.000073
0.000076 0.000122 0.000074
0.000083 0.000128 0.000074
0.000090 0.000133 0.000074
0.000097 0.000139 0.000074
0.000105 0.000144 0.000073
0.000113 0.000149 0.000072
0.000120 0.000153 0.000070
0.000128 0.000157 0.000069
0.000136 0.000162 0.000067
0.000144 0.000165 0.000065
0.000152 0.000169 0.000062
0.000160 0.000173 0.000060
0.000168 0.000176 0.000057
0.000176 0.000179 0.000054
0.000184 0.000182 0.000051
0.000192 0.000184 0.000048
0.000200 0.000187 0.000044
0.000208 0.000189 0.000041
0.000216 0.000190 0.000037
0.000224 0.000192 0.000033
0.000232 0.000193 0.000029
0.000240 0.000194 0.000026
0.000249 0.000194 0.000022
0.000257 0.000194 0.000019
0.000266 0.000194 0.000015
0.000274 0.000194 0.000012
0.000283 0.000193 0.000010
0.000291 0.000193 0.000007
0.000300 0.000192 0.000005
0.000309 0.000191 0.000004
0.000318 0.000191 0.000003
0.000327 0.000190 0.000002
0.000336 0.000190 0.000002
0.000345 0.000190 0.000002
0.000354 0.000190 0.000003
0.000363 0.000190 0.000005
0.000372 0.000190 0.000007
0.000380 0.000191 0.000010
0.000389 0.000193 0.000014
0.000396 0.000194 0.000018
0.000404 0.000196 0.000022
0.000411 0.000199 0.000028
0.000417 0.000202 0.000033
0.000423 0.000205 0.000040
0.000428 0.000209 0.000046
0.000432 0.000213 0.000053
0.000436 0.000217 0.000060
0.000439 0.000222 0.000067
0.000441 0.000226 0.000075
0.000443 0.000231 0.000082
0.000444 0.000236 0.000090
0.000444 0.000241 0.000098
0.000444 0.000245 0.000105
0.000444 0.000250 0.000113
0.000443 0.000255 0.000121
0.000442 0.000260 0.000129
0.000440 0.000264 0.000136
0.000438 0.000269 0.000144
0.000436 0.000274 0.000151
0.000434 0.000278 0.000158
0.000431 0.000283 0.000166
0.000429 0.000288 0.000173
0.000426 0.000293 0.000180
0.000423 0.000298 0.000187
0.000420 0.000303 0.000194
0.000416 0.000308 0.000201
0.000413 0.000313 0.000208
0.000410 0.000317 0.000215
VECTORS Rotation float
0.863939 0.360859 -1.854077
0.863570 0.360477 -1.853026
0.862411 0.359407 -1.849722
0.860331 0.357890 -1.843780
0.857134 0.356323 -1.834639
0.852538 0.355207 -1.821510
0.846206 0.355144 -1.803502
0.837761 0.356791 -1.779700
0.826945 0.360769 -1.749698
0.813204 0.367715 -1.712423
0.796147 0.378039 -1.667518
0.775352 0.391909 -1.614776
0.750246 0.409273 -1.553758
0.720273 0.429680 -1.484203
0.685287 0.452027 -1.406861
0.644865 0.475178 -1.321537
0.599170 0.497494 -1.229094
0.548677 0.517298 -1.130556
0.494316 0.533009 -1.027362
0.437590 0.543310 -0.921632
0.379959 0.547387 -0.815024
0.323598 0.544867 -0.710500
0.270209 0.535948 -0.610168
0.221126 0.521235 -0.515729
0.177440 0.501721 -0.428859
0.139556 0.478538 -0.350320
0.107652 0.453048 -0.280878
0.081536 0.426666 -0.220902
0.060600 0.400569 -0.170045
0.044239 0.375954 -0.128069
0.031768 0.353834 -0.094505
0.022443 0.334871 -0.068519
0.015667 0.319699 -0.049435
0.010910 0.308697 -0.036440
0.007825 0.302340 -0.029035
0.006111 0.300718 -0.026480
0.005612 0.303990 -0.028352
0.006312 0.312272 -0.034344
0.008229 0.325454 -0.044181
0.011566 0.343624 -0.057910
0.016527 0.366535 -0.075498
0.023435 0.393953 -0.097101
0.032698 0.425555 -0.122981
0.044964 0.461264 -0.153822
0.060727 0.500193 -0.189838
0.080892 0.542026 -0.231995
0.106226 0.585728 -0.280848
0.137666 0.630277 -0.337201
0.176410 0.674690 -0.402240
0.223126 0.717241 -0.476299
0.278545 0.756408 -0.559962
0.342834 0.790490 -0.653183
0.415179 0.817729 -0.754849
0.493718 0.836623 -0.862789
0.575485 0.846124 -0.973710
0.656941 0.845836 -1.083781
0.734340 0.836071 -1.188919
0.804767 0.817798 -1.285944
0.866466 0.792435 -1.372891
0.918888 0.761626 -1.449075
0.962426 0.727066 -1.514830
0.998061 0.690366 -1.571157
1.027289 0.652667 -1.619797
1.051093 0.615492 -1.661763
1.071017 0.579170 -1.699086
1.087531 0.545173 -1.732151
1.101884 0.512999 -1.762830
1.114503 0.482920 -1.791691
1.125509 0.455290 -1.818742
1.135218 0.429559 -1.844401
1.143955 0.404663 -1.869186
1.151439 0.380597 -1.892306
1.157897 0.356080 -1.914097
1.163277 0.330428 -1.934273
1.167527 0.303066 -1.952519
1.170531 0.273961 -1.968255
1.172408 0.242260 -1.981422
1.173098 0.208507 -1.991304
1.172676 0.173162 -1.997334
1.171303 0.136938 -1.998951
1.169221 0.100758 -1.995657
1.166760 0.065246 -1.986977
1.164240 0.032373 -1.972848
1.162034 0.002376 -1.952789
1.160430 -0.023439 -1.927030
1.159601 -0.044058 -1.896102
1.159720 -0.059474 -1.859570
1.160739 -0.069198 -1.818257
1.162545 -0.073181 -1.772592
1.164942 -0.071539 -1.722960
1.167674 -0.064475 -1.669672
1.170437 -0.052214 -1.612937
1.172862 -0.035125 -1.553569
1.174622 -0.012909 -1.490136
1.175252 0.013826 -1.424181
1.174292 0.045330 -1.354895
1.171297 0.081081 -1.283137
1.165680 0.121252 -1.208032
1.157054 0.164848 -1.130550
1.144528 0.212177 -1.048749
1.128108 0.260881 -0.964816
1.107321 0.310067 -0.878032
1.082214 0.357896 -0.789082
1.052760 0.402952 -0.697949
1.019232 0.443746 -0.605046
0.982875 0.478505 -0.512416
0.944828 0.506403 -0.421391
0.906400 0.527166 -0.333459
0.868823 0.541132 -0.249932
0.833031 0.549165 -0.171687
0.799887 0.552472 -0.099640
0.769459 0.552512 -0.033520
0.741961 0.550737 0.026531
0.717084 0.548438 0.081148
0.694450 0.546609 0.131005
0.673781 0.545892 0.176574
0.654783 0.546566 0.218334
0.637300 0.548588 0.256533
0.621248 0.551688 0.291308
0.606628 0.555475 0.322667
0.593535 0.559526 0.350478
0.582025 0.563480 0.374691
0.572233 0.567041 0.395133
0.564186 0.570032 0.411819
0.557959 0.572349 0.424676
0.553518 0.573981 0.433811
0.550885 0.574935 0.439224
0.550007 0.575250 0.441026
VECTORS ControlForce float
-0.000000 -0.000000 0.000000
-0.000281 -0.000076 0.000087
-0.000533 -0.000128 0.000181
-0.000739 -0.000143 0.000271
-0.000886 -0.000122 0.000350
-0.000951 -0.000055 0.000423
-0.000941 0.000046 0.000500
-0.000865 0.000161 0.000578
-0.000708 0.000282 0.000645
-0.000483 0.000373 0.000700
-0.000193 0.000419 0.000736
0.000122 0.000388 0.000743
0.000426 0.000280 0.000726
0.000692 0.000127 0.000686
0.000908 -0.000022 0.000621
0.001038 -0.000145 0.000539
0.001079 -0.000214 0.000445
0.001037 -0.000225 0.000349
0.000938 -0.000186 0.000257
0.000801 -0.000129 0.000178
0.000660 -0.000063 0.000118
0.000538 0.000014 0.000074
0.000443 0.000107 0.000038
0.000365 0.000209 0.000013
0.000289 0.000310 -0.000005
0.000209 0.000407 -0.000026
0.000107 0.000473 -0.000045
-0.000021 0.000495 -0.000063
-0.000165 0.000473 -0.000078
-0.000306 0.000424 -0.000098
-0.000426 0.000364 -0.000129
-0.000509 0.000304 -0.000161
-0.000545 0.000241 -0.000175
-0.000530 0.000177 -0.000166
-0.000469 0.000124 -0.000161
-0.000379 0.000086 -0.000161
-0.000279 0.000048 -0.000155
-0.000188 0.000007 -0.000137
-0.000113 -0.000034 -0.000120
-0.000051 -0.000082 -0.000091
0.000002 -0.000135 -0.000056
0.000048 -0.000180 -0.000033
0.000082 -0.000226 -0.000006
0.000098 -0.000270 0.000026
0.000094 -0.000326 0.000065
0.000070 -0.000395 0.000105
0.000032 -0.000471 0.000135
-0.000013 -0.000540 0.000144
-0.000058 -0.000592 0.000133
-0.000101 -0.000626 0.000108
-0.000147 -0.000658 0.000081
-0.000194 -0.000674 0.000052
-0.000233 -0.000653 0.000017
-0.000268 -0.000593 -0.000018
-0.000291 -0.000480 -0.000053
-0.000304 -0.000312 -0.000085
-0.000313 -0.000107 -0.000110
-0.000312 0.000133 -0.000128
-0.000302 0.000377 -0.000139
-0.000282 0.000590 -0.000145
-0.000252 0.000743 -0.000147
-0.000204 0.000827 -0.000148
-0.000151 0.000821 -0.000145
-0.000080 0.000748 -0.000141
0.000009 0.000625 -0.000134
0.000109 0.000442 -0.000130
0.000209 0.000212 -0.000116
0.000310 -0.000035 -0.000095
0.000414 -0.000265 -0.000083
0.000519 -0.000431 -0.000072
0.000603 -0.000508 -0.000042
0.000624 -0.000532 -0.000007
0.000559 -0.000523 0.000042
0.000402 -0.000506 0.000102
0.000163 -0.000491 0.000154
-0.000141 -0.000489 0.000182
-0.000451 -0.000458 0.000202
-0.000731 -0.000382 0.000208
-0.000947 -0.000256 0.000195
-0.001077 -0.000098 0.000161
-0.001115 0.000056 0.000114
-0.001050 0.000206 0.000068
-0.000900 0.000324 0.000017
-0.000678 0.000416 -0.000019
-0.000418 0.000459 -0.000050
-0.000156 0.000440 -0.000082
0.000066 0.000363 -0.000096
0.000228 0.000263 -0.000091
0.000304 0.000145 -0.000075
0.000299 0.000041 -0.000049
0.000227 -0.000036 -0.000016
0.000118 -0.000070 0.000020
0.000004 -0.000056 0.000058
-0.000086 -0.000014 0.000108
-0.000139 0.000019 0.000157
-0.000126 0.000055 0.000198
-0.000046 0.000067 0.000220
0.000091 0.000028 0.000229
0.000283 -0.000036 0.000223
0.000520 -0.000089 0.000197
0.000777 -0.000114 0.000122
0.000996 -0.000130 -0.000000
0.001122 -0.000141 -0.000154
0.001119 -0.000145 -0.000308
0.000980 -0.000118 -0.000442
0.000717 -0.000048 -0.000554
0.000364 0.000049 -0.000635
-0.000027 0.000154 -0.000675
-0.000395 0.000262 -0.000683
-0.000682 0.000357 -0.000673
-0.000848 0.000417 -0.000660
-0.000862 0.000412 -0.000640
-0.000730 0.000339 -0.000625
-0.000499 0.000221 -0.000629
-0.000212 0.000075 -0.000642
0.000086 -0.000079 -0.000651
0.000344 -0.000207 -0.000658
0.000510 -0.000282 -0.000671
0.000584 -0.000307 -0.000675
0.000575 -0.000289 -0.000667
0.000501 -0.000243 -0.000642
0.000397 -0.000187 -0.000594
0.000273 -0.000130 -0.000534
0.000149 -0.000077 -0.000462
0.000056 -0.000039 -0.000370
0.000004 -0.000016 -0.000260
-0.000016 -0.000002 -0.000139
-0.000000 -0.000000 -0.000000
VECTORS ControlTorque float
-0.000000 0.000001 0.000000
-0.000000 0.000001 0.000000
-0.000000 0.000001 0.000000
-0.000000 0.000001 0.000000
-0.000001 0.000001 -0.000000
-0.000001 0.000002 -0.000000
-0.000001 0.000002 -0.000001
-0.000001 0.000002 -0.000001
-0.000001 0.000003 -0.000001
-0.000001 0.000003 -0.000001
-0.000001 0.000002 -0.000002
-0.000001 0.000003 -0.000002
-0.000001 0.000003 -0.000002
-0.000001 0.000002 -0.000002
-0.000001 0.000002 -0.000002
-0.000001 0.000002 -0.000001
-0.000000 0.000001 -0.000001
-0.000000 0.000001 -0.000000
-0.000000 0.000000 0.000000
-0.000000 0.000000 0.000000
0.000000 -0.000001 0.000001
-0.000000 -0.000001 0.000001
-0.000000 -0.000001 0.000001
0.000000 -0.000002 0.000001
0.000000 -0.000002 0.000001
0.000000 -0.000002 0.000001
0.000001 -0.000003 0.000001
0.000001 -0.000003 0.000001
0.000001 -0.000003 0.000001
0.000001 -0.000003 0.000001
0.000001 -0.000002 0.000001
0.000002 -0.000002 0.000001
0.000002 -0.000002 0.000001
0.000002 -0.000002 0.000001
0.000002 -0.000002 0.000000
0.000002 -0.000002 0.000000
0.000002 -0.000002 0.000000
0.000002 -0.000001 0.000000
0.000002 -0.000001 0.000000
0.000002 -0.000001 0.000000
0.000002 -0.000001 0.000000
0.000002 -0.000001 0.000000
0.000002 -0.000002 0.000000
0.000001 -0.000001 0.000000
0.000002 -0.000002 0.000001
0.000001 -0.000001 0.000001
0.000001 -0.000001 0.000001
0.000001 -0.000001 0.000001
0.000000 -0.000001 0.000001
0.000000 -0.000001 0.000001
-0.000000 -0.000001 0.000001
-0.000000 -0.000001 0.000001
-0.000001 -0.000000 0.000001
-0.000001 0.000000 0.000001
-0.000001 0.000000 0.000001
-0.000001 0.000001 0.000001
-0.000001 0.000001 0.000001
-0.000001 0.000001 0.000001
-0.000001 0.000001 0.000001
-0.000001 0.000001 0.000000
-0.000001 0.000001 -0.000000
-0.000001 0.000001 0.000000
-0.000001 0.000001 -0.000001
-0.000000 0.000000 0.000000
-0.000001 0.000001 -0.000002
-0.000000 -0.000000 -0.000000
-0.000000 0.000000 -0.000001
-0.000001 0.000000 -0.000001
-0.000000 0.000000 -0.000001
0.000000 -0.000000 0.000000
-0.000001 0.000001 -0.000001
0.000000 0.000000 0.000000
-0.000000 0.000000 0.000000
0.000000 0.000000 0.000001
-0.000000 0.000001 0.000000
0.000000 0.000001 0.000002
-0.000000 0.000001 0.000001
-0.000000 0.000001 0.000001
-0.000000 0.000002 0.000000
-0.000000 0.000002 -0.000000
-0.000000 0.000002 0.000000
-0.000001 0.000002 -0.000002
-0.000000 0.000003 -0.000001
-0.000001 0.000002 -0.000002
-0.000001 0.000002 -0.000002
-0.000000 0.000003 -0.000002
-0.000001 0.000002 -0.000002
-0.000000 0.000002 -0.000002
-0.000000 0.000002 -0.000002
-0.000000 0.000001 -0.000002
0.000000 0.000002 -0.000002
0.000000 0.000000 -0.000002
0.000000 0.000003 -0.000003
0.000000 -0.000000 -0.000001
0.000000 0.000002 -0.000002
0.000000 -0.000000 -0.000001
0.000001 0.000002 -0.000002
0.000001 -0.000001 -0.000001
0.000001 0.000003 -0.000003
0.000000 -0.000001 -0.000000
0.000001 0.000001 -0.000001
0.000000 -0.000001 0.000000
0.000000 -0.000000 0.000000
-0.000000 0.000000 0.000000
-0.000001 -0.000001 0.000001
-0.000001 -0.000001 0.000001
-0.000001 -0.000002 0.000002
-0.000001 -0.000002 0.000002
-0.000001 -0.000002 0.000001
-0.000001 -0.000002 0.000001
-0.000000 -0.000002 0.000001
-0.000000 -0.000002 0.000001
0.000000 -0.000002 0.000001
0.000001 -0.000001 0.000001
0.000001 -0.000001 0.000001
0.000001 -0.000001 0.000001
0.000001 -0.000001 0.000001
0.000001 -0.000001 0.000001
0.000000 -0.000001 0.000001
0.000000 -0.000001 0.000001
-0.000000 -0.000001 0.000001
-0.000000 -0.000001 0.000001
-0.000000 -0.000001 0.000001
-0.000001 -0.000001 0.000001
-0.000000 -0.000001 0.000000
-0.000001 -0.000001 0.000000
-0.000000 -0.000001 0.000000
-0.000001 -0.000001 0.000000
VECTORS Curvature float
62.266071 -20.395304 -0.117295
204.576374 -74.331679 -0.392482
460.803230 -195.277604 -0.702813
698.563957 -365.480874 -0.442852
961.373842 -623.373311 0.991168
1247.200904 -987.138188 4.639454
1571.190566 -1491.928440 11.734084
1862.082779 -2077.101891 23.567062
2141.967636 -2773.455286 41.176383
2431.707541 -3605.880517 64.918830
2644.921972 -4452.098481 94.512555
2818.703157 -5332.636088 129.047047
2988.487422 -6289.282936 166.542795
3084.732793 -7122.357247 203.329598
3151.680229 -7854.311043 237.782474
3233.341138 -8525.676464 264.894275
3293.258218 -8992.463238 282.592926
3372.178340 -9326.322693 288.596261
3441.052573 -9446.618866 282.229320
3537.909590 -9463.159920 265.024907
3629.982798 -9329.928979 238.766431
3681.259650 -8978.606894 207.372332
3741.265286 -8579.787051 173.805732
3764.747348 -8065.231742 141.663980
3754.005347 -7474.072507 112.799468
3703.260393 -6835.148306 89.354255
3559.603226 -6082.178813 71.909549
3359.699225 -5311.662690 60.269747
3103.518187 -4544.477440 54.909353
2756.412879 -3743.434412 54.844796
2369.338856 -2991.274804 59.148377
1941.871619 -2292.050454 67.203181
1482.845280 -1652.755157 77.462138
975.935049 -1053.263633 89.145693
443.877440 -509.094406 100.692230
-85.205189 -33.192589 111.403440
-642.126855 417.690498 120.000390
-1189.296165 825.559456 125.979011
-1741.044695 1218.085044 128.543785
-2298.111230 1606.464265 127.831562
-2820.218876 1974.192353 123.831133
-3303.395013 2327.440001 117.370421
-3817.831990 2725.521060 108.682146
-4280.176652 3113.521104 100.294762
-4687.866895 3497.976870 91.555550
-5086.971814 3913.150067 85.252952
-5360.935383 4274.712287 81.216140
-5631.028748 4681.078521 79.436599
-5813.095235 5061.708304 81.640102
-5867.299514 5386.190240 85.412676
-5870.690384 5717.113969 91.134767
-5767.391911 6002.220512 97.580134
-5556.568000 6234.702057 103.456664
-5245.338971 6410.662377 107.957885
-4853.288115 6541.527710 110.561199
-4390.145160 6615.564051 111.454129
-3868.791207 6621.396657 111.184123
-3328.895346 6577.319519 110.594851
-2795.413947 6478.262396 110.244536
-2298.452463 6331.169053 110.425873
-1854.023896 6100.804264 110.920692
-1506.515158 5895.965218 112.538197
-1237.609669 5586.444316 113.324282
-1069.238087 5318.291360 116.390176
-976.092743 4963.562935 117.917801
-944.396607 4581.984703 122.530230
-1005.709414 4406.005707 126.484489
-1054.040938 4079.246112 131.137992
-1078.034479 3725.850786 136.544946
-1126.088589 3603.356223 142.296202
-1105.003527 3464.311143 146.580198
-1010.158458 3345.528207 151.426356
-891.718236 3411.389060 154.834081
-696.424816 3509.396891 157.829180
-432.190041 3556.935120 159.996619
-113.472015 3679.496338 162.846489
256.276499 3849.337820 165.410283
679.864691 3864.352777 169.240055
1146.679364 3822.857965 174.231120
1623.858907 3642.234239 180.699575
2169.113523 3424.731928 187.924218
2642.087484 3000.716952 196.026684
3092.257129 2441.654289 202.341670
3596.702441 1857.536231 206.946412
3872.114144 1103.500367 207.573625
4188.897338 336.091809 202.023869
4522.111758 -441.889601 191.257519
4703.154888 -1221.472051 173.334262
4879.708857 -1973.346521 148.988644
5019.466630 -2683.309276 118.512412
5190.990848 -3388.754872 83.183993
5224.737361 -3958.221843 42.390932
5404.019902 -4630.679137 0.619665
5578.095867 -5276.821729 -46.623826
5650.975250 -5850.334521 -92.155760
5736.575621 -6423.950747 -141.949689
5810.078517 -7010.936247 -188.341219
5824.672798 -7507.103113 -239.592769
5932.441826 -8120.380894 -283.299020
6006.373148 -8631.523180 -335.277188
5889.346458 -8787.375716 -379.201232
5857.021841 -8940.559513 -425.598425
5771.117759 -8870.712275 -466.403370
5786.675249 -8800.339287 -502.497436
5725.459427 -8469.914663 -532.718340
5580.325095 -7891.254214 -551.626477
5440.808529 -7250.816971 -560.012428
5265.065904 -6544.799181 -556.727242
5082.415208 -5868.448364 -542.799257
4829.515821 -5206.532120 -520.025520
4544.275862 -4638.173424 -490.546499
4215.141563 -4180.618858 -456.836094
3811.421820 -3797.175888 -420.919136
3411.038674 -3544.922572 -384.432198
2990.064500 -3359.463699 -348.517989
2570.397273 -3214.468987 -313.920361
2174.793577 -3083.992553 -280.961343
1811.706124 -2934.491880 -249.770142
1495.436670 -2757.669153 -220.284712
1220.702663 -2532.204139 -192.342495
990.391136 -2270.691038 -165.739441
795.485583 -1972.347308 -140.243227
629.580460 -1651.022540 -115.645438
485.486329 -1318.165916 -91.773618
354.254647 -979.324767 -68.274443
235.449073 -655.097849 -45.838762
105.842398 -294.707852 -20.901216
33.796347 -93.837903 -6.478733
VECTORS LocalRotation float
-0.322370 0.323607 -0.046057
-0.321159 0.323177 -0.046060
-0.318158 0.321961 -0.046065
-0.312931 0.319433 -0.046070
-0.305400 0.314947 -0.046067
-0.295368 0.307631 -0.046042
-0.282601 0.296401 -0.045968
-0.267143 0.280332 -0.045809
-0.248951 0.258294 -0.045515
-0.228273 0.229452 -0.045035
-0.205314 0.193010 -0.044314
-0.180520 0.148606 -0.043299
-0.154197 0.095928 -0.041959
-0.126786 0.035394 -0.040290
-0.098502 -0.032529 -0.038289
-0.069611 -0.106647 -0.036015
-0.040066 -0.185947 -0.033537
-0.009885 -0.268894 -0.030950
0.020959 -0.353881 -0.028366
0.052609 -0.439639 -0.025884
0.084999 -0.524558 -0.023608
0.118108 -0.607469 -0.021587
0.151757 -0.687069 -0.019859
0.185747 -0.762443 -0.018431
0.219819 -0.832861 -0.017278
0.253530 -0.897547 -0.016364
0.286351 -0.955921 -0.015635
0.317693 -1.007530 -0.015036
0.346927 -1.052111 -0.014515
0.373457 -1.089634 -0.014018
0.396738 -1.120223 -0.013501
0.416285 -1.144177 -0.012928
0.431806 -1.162055 -0.012272
0.442886 -1.174249 -0.011521
0.449343 -1.181355 -0.010658
0.450958 -1.183796 -0.009703
0.447648 -1.182046 -0.008650
0.439381 -1.176434 -0.007540
0.426073 -1.167153 -0.006384
0.407835 -1.154399 -0.005226
0.384693 -1.138210 -0.004089
0.356947 -1.118719 -0.002996
0.324587 -1.095758 -0.001968
0.288031 -1.069399 -0.001025
0.247365 -1.039419 -0.000155
0.203203 -1.005936 0.000644
0.155912 -0.968875 0.001397
0.106050 -0.928249 0.002126
0.054324 -0.884214 0.002854
0.001395 -0.836869 0.003611
-0.051799 -0.786551 0.004411
-0.104486 -0.733497 0.005265
-0.155746 -0.678103 0.006175
-0.204647 -0.620857 0.007133
-0.250382 -0.562199 0.008122
-0.292213 -0.502657 0.009127
-0.329606 -0.442727 0.010135
-0.362200 -0.382956 0.011139
-0.389934 -0.323835 0.012139
-0.412996 -0.265841 0.013138
-0.431802 -0.209538 0.014141
-0.447045 -0.155123 0.015154
-0.459436 -0.103273 0.016174
-0.469914 -0.053741 0.017218
-0.479122 -0.007453 0.018273
-0.487896 0.036153 0.019371
-0.496709 0.076775 0.020496
-0.505964 0.114899 0.021654
-0.515647 0.150348 0.022870
-0.525705 0.183793 0.024142
-0.535738 0.215575 0.025441
-0.545381 0.246622 0.026800
-0.553991 0.277210 0.028186
-0.561151 0.308411 0.029596
-0.566230 0.340215 0.031026
-0.568717 0.373194 0.032497
-0.568073 0.407127 0.033977
-0.563845 0.441967 0.035488
-0.555576 0.476770 0.037044
-0.543005 0.510640 0.038654
-0.525765 0.542761 0.040329
-0.504128 0.571658 0.042056
-0.477981 0.596474 0.043873
-0.447815 0.615862 0.045718
-0.414107 0.629226 0.047589
-0.377263 0.635806 0.049461
-0.337910 0.635328 0.051238
-0.296208 0.627809 0.052886
-0.252866 0.613359 0.054344
-0.208089 0.592296 0.055554
-0.161923 0.564841 0.056466
-0.114873 0.531653 0.057033
-0.066360 0.492451 0.057229
-0.016985 0.447907 0.057023
0.033934 0.397450 0.056393
0.085341 0.342041 0.055336
0.137851 0.280944 0.053834
0.190484 0.215267 0.051899
0.244072 0.144038 0.049515
0.297579 0.068960 0.046743
0.351444 -0.009915 0.043508
0.404644 -0.090206 0.039863
0.457548 -0.171240 0.035804
0.510023 -0.251471 0.031405
0.561940 -0.329356 0.026737
0.613061 -0.403336 0.021834
0.662965 -0.471899 0.016800
0.711489 -0.534427 0.011739
0.758395 -0.590698 0.006754
0.803240 -0.640804 0.001946
0.845743 -0.685443 -0.002636
0.885326 -0.725294 -0.006918
0.921690 -0.761437 -0.010894
0.954424 -0.794713 -0.014544
0.983399 -0.825967 -0.017862
1.008579 -0.855736 -0.020862
1.030057 -0.884245 -0.023554
1.048107 -0.911495 -0.025957
1.063081 -0.937267 -0.028086
1.075373 -0.961208 -0.029953
1.085391 -0.982969 -0.031575
1.093473 -1.002170 -0.032960
1.099933 -1.018595 -0.034120
1.104977 -1.032026 -0.035058
1.108783 -1.042438 -0.035784
1.111447 -1.049822 -0.036299
1.112995 -1.054132 -0.036602
1.113626 -1.055887 -0.036726
VECTORS q1 float
0.076257 -0.711432 -0.698605
0.076571 -0.711310 -0.698695
0.077650 -0.710891 -0.699002
0.079881 -0.710026 -0.699630
0.083863 -0.708484 -0.700726
0.090413 -0.705949 -0.702468
0.100493 -0.702045 -0.705006
0.115146 -0.696345 -0.708410
0.135116 -0.688495 -0.712543
0.161550 -0.677928 -0.717158
0.195001 -0.664204 -0.721670
0.235698 -0.646897 -0.725238
0.283749 -0.625508 -0.726792
0.338746 -0.599633 -0.725046
0.399093 -0.569330 -0.718741
0.463645 -0.534496 -0.706645
0.530294 -0.495595 -0.687876
0.596938 -0.453318 -0.661942
0.661522 -0.408617 -0.628824
0.722070 -0.362737 -0.589099
0.777411 -0.316691 -0.543451
0.826183 -0.271935 -0.493429
0.867921 -0.229505 -0.440500
0.902613 -0.190202 -0.386152
0.930462 -0.154756 -0.332102
0.952115 -0.123478 -0.279698
0.968287 -0.096605 -0.230408
0.979844 -0.074144 -0.185495
0.987765 -0.055769 -0.145640