# vtk DataFile Version 2.0
VTK example
ASCII
DATASET UNSTRUCTURED_GRID
POINTS  128  float
-0.000449 -0.000115 -0.000208
-0.000447 -0.000116 -0.000200
-0.000444 -0.000117 -0.000191
-0.000442 -0.000118 -0.000182
-0.000439 -0.000119 -0.000174
-0.000436 -0.000120 -0.000165
-0.000433 -0.000121 -0.000157
-0.000429 -0.000122 -0.000149
-0.000424 -0.000123 -0.000141
-0.000419 -0.000124 -0.000134
-0.000413 -0.000125 -0.000127
-0.000407 -0.000126 -0.000121
-0.000400 -0.000127 -0.000115
-0.000392 -0.000127 -0.000110
-0.000384 -0.000127 -0.000106
-0.000375 -0.000127 -0.000103
-0.000367 -0.000127 -0.000101
-0.000358 -0.000126 -0.000099
-0.000349 -0.000125 -0.000098
-0.000340 -0.000125 -0.000098
-0.000331 -0.000123 -0.000099
-0.000322 -0.000122 -0.000101
-0.000313 -0.000121 -0.000103
-0.000305 -0.000120 -0.000105
-0.000296 -0.000118 -0.000108
-0.000288 -0.000117 -0.000111
-0.000280 -0.000115 -0.000115
-0.000272 -0.000114 -0.000119
-0.000264 -0.000113 -0.000123
-0.000256 -0.000112 -0.000128
-0.000248 -0.000110 -0.000132
-0.000241 -0.000109 -0.000137
-0.000233 -0.000108 -0.000142
-0.000226 -0.000107 -0.000147
-0.000218 -0.000106 -0.000152
-0.000211 -0.000105 -0.000157
-0.000203 -0.000104 -0.000162
-0.000196 -0.000102 -0.000167
-0.000188 -0.000101 -0.000172
-0.000181 -0.000100 -0.000176
-0.000173 -0.000098 -0.000181
-0.000165 -0.000097 -0.000185
-0.000157 -0.000096 -0.000190
-0.000149 -0.000094 -0.000194
-0.000141 -0.000093 -0.000197
-0.000133 -0.000091 -0.000200
-0.000124 -0.000089 -0.000203
-0.000116 -0.000088 -0.000206
-0.000107 -0.000086 -0.000207
-0.000098 -0.000084 -0.000209
-0.000089 -0.000082 -0.000209
-0.000081 -0.000079 -0.000209
-0.000072 -0.000077 -0.000208
-0.000064 -0.000074 -0.000207
-0.000055 -0.000071 -0.000204
-0.000047 -0.000068 -0.000201
-0.000040 -0.000065 -0.000198
-0.000033 -0.000062 -0.000193
-0.000026 -0.000058 -0.000189
-0.000020 -0.000054 -0.000183
-0.000014 -0.000050 -0.000177
-0.000009 -0.000046 -0.000171
-0.000004 -0.000042 -0.000165
0.000001 -0.000038 -0.000158
0.000004 -0.000034 -0.000151
0.000008 -0.000030 -0.000143
0.000011 -0.000026 -0.000136
0.000013 -0.000022 -0.000128
0.000015 -0.000019 -0.000120
0.000017 -0.000015 -0.000112
0.000019 -0.000011 -0.000104
0.000020 -0.000007 -0.000096
0.000022 -0.000004 -0.000087
0.000023 -0.000000 -0.000079
0.000024 0.000003 -0.000071
0.000025 0.000007 -0.000063
0.000025 0.000010 -0.000054
0.000026 0.000013 -0.000046
0.000027 0.000017 -0.000037
0.000027 0.000020 -0.000029
0.000028 0.000023 -0.000021
0.000029 0.000027 -0.000012
0.000029 0.000030 -0.000004
0.000030 0.000034 0.000004
0.000031 0.000038 0.000012
0.000032 0.000042 0.000020
0.000034 0.000046 0.000028
0.000036 0.000051 0.000036
0.000037 0.000056 0.000043
0.000040 0.000061 0.000050
0.000043 0.000066 0.000057
0.000046 0.000071 0.000063
0.000050 0.000077 0.000069
0.000054 0.000083 0.000075
0.000059 0.000089 0.000079
0.000064 0.000096 0.000083
0.000070 0.000102 0.000086
0.000077 0.000108 0.000089
0.000083 0.000114 0.000090
0.000090 0.000119 0.000091
0.000097 0.000125 0.000091
0.000105 0.000130 0.000091
0.000112 0.000135 0.000090
0.000120 0.000140 0.000088
0.000127 0.000144 0.000086
0.000135 0.000148 0.000084
0.000143 0.000152 0.000081
0.000150 0.000156 0.000077
0.000158 0.000159 0.000074
0.000165 0.000163 0.000070
0.000173 0.000166 0.000066
0.000180 0.000169 0.000061
0.000188 0.000171 0.000057
0.000195 0.000173 0.000052
0.000202 0.000176 0.000047
0.000210 0.000178 0.000042
0.000217 0.000179 0.000037
0.000224 0.000181 0.000032
0.000232 0.000182 0.000027
0.000239 0.000183 0.000022
0.000247 0.000184 0.000017
0.000254 0.000185 0.000012
0.000262 0.000185 0.000007
0.000269 0.000186 0.000002
0.000277 0.000186 -0.000003
0.000284 0.000187 -0.000008
0.000292 0.000187 -0.000012
0.000300 0.000187 -0.000017
CELLS  127 381
2 0 1 
2 1 2 
2 2 3 
2 3 4 
2 4 5 
2 5 6 
2 6 7 
2 7 8 
2 8 9 
2 9 10 
2 10 11 
2 11 12 
2 12 13 
2 13 14 
2 14 15 
2 15 16 
2 16 17 
2 17 18 
2 18 19 
2 19 20 
2 20 21 
2 21 22 
2 22 23 
2 23 24 
2 24 25 
2 25 26 
2 26 27 
2 27 28 
2 28 29 
2 29 30 
2 30 31 
2 31 32 
2 32 33 
2 33 34 
2 34 35 
2 35 36 
2 36 37 
2 37 38 
2 38 39 
2 39 40 
2 40 41 
2 41 42 
2 42 43 
2 43 44 
2 44 45 
2 45 46 
2 46 47 
2 47 48 
2 48 49 
2 49 50 
2 50 51 
2 51 52 
2 52 53 
2 53 54 
2 54 55 
2 55 56 
2 56 57 
2 57 58 
2 58 59 
2 59 60 
2 60 61 
2 61 62 
2 62 63 
2 63 64 
2 64 65 
2 65 66 
2 66 67 
2 67 68 
2 68 69 
2 69 70 
2 70 71 
2 71 72 
2 72 73 
2 73 74 
2 74 75 
2 75 76 
2 76 77 
2 77 78 
2 78 79 
2 79 80 
2 80 81 
2 81 82 
2 82 83 
2 83 84 
2 84 85 
2 85 86 
2 86 87 
2 87 88 
2 88 89 
2 89 90 
2 90 91 
2 91 92 
2 92 93 
2 93 94 
2 94 95 
2 95 96 
2 96 97 
2 97 98 
2 98 99 
2 99 100 
2 100 101 
2 101 102 
2 102 103 
2 103 104 
2 104 105 
2 105 106 
2 106 107 
2 107 108 
2 108 109 
2 109 110 
2 110 111 
2 111 112 
2 112 113 
2 113 114 
2 114 115 
2 115 116 
2 116 117 
2 117 118 
2 118 119 
2 119 120 
2 120 121 
2 121 122 
2 122 123 
2 123 124 
2 124 125 
2 125 126 
2 126 127 
CELL_TYPES  127
3
3
3
3
3
3
3
3
3
3
3
3
3
3
3
3
3
3
3
3
3
3
3
3
3
3
3
3
3
3
3
3
3
3
3
3
3
3
3
3
3
3
3
3
3
3
3
3
3
3
3
3
3
3
3
3
3
3
3
3
3
3
3
3
3
3
3
3
3
3
3
3
3
3
3
3
3
3
3
3
3
3
3
3
3
3
3
3
3
3
3
3
3
3
3
3
3
3
3
3
3
3
3
3
3
3
3
3
3
3
3
3
3
3
3
3
3
3
3
3
3
3
3
3
3
3
3
POINT_DATA  128
VECTORS Position float
-0.000449 -0.000115 -0.000208
-0.000447 -0.000116 -0.000200
-0.000444 -0.000117 -0.000191
-0.000442 -0.000118 -0.000182
-0.000439 -0.000119 -0.000174
-0.000436 -0.000120 -0.000165
-0.000433 -0.000121 -0.000157
-0.000429 -0.000122 -0.000149
-0.000424 -0.000123 -0.000141
-0.000419 -0.000124 -0.000134
-0.000413 -0.000125 -0.000127
-0.000407 -0.000126 -0.000121
-0.000400 -0.000127 -0.000115
-0.000392 -0.000127 -0.000110
-0.000384 -0.000127 -0.000106
-0.000375 -0.000127 -0.000103
-0.000367 -0.000127 -0.000101
-0.000358 -0.000126 -0.000099
-0.000349 -0.000125 -0.000098
-0.000340 -0.000125 -0.000098
-0.000331 -0.000123 -0.000099
-0.000322 -0.000122 -0.000101
-0.000313 -0.000121 -0.000103
-0.000305 -0.000120 -0.000105
-0.000296 -0.000118 -0.000108
-0.000288 -0.000117 -0.000111
-0.000280 -0.000115 -0.000115
-0.000272 -0.000114 -0.000119
-0.000264 -0.000113 -0.000123
-0.000256 -0.000112 -0.000128
-0.000248 -0.000110 -0.000132
-0.000241 -0.000109 -0.000137
-0.000233 -0.000108 -0.000142
-0.000226 -0.000107 -0.000147
-0.000218 -0.000106 -0.000152
-0.000211 -0.000105 -0.000157
-0.000203 -0.000104 -0.000162
-0.000196 -0.000102 -0.000167
-0.000188 -0.000101 -0.000172
-0.000181 -0.000100 -0.000176
-0.000173 -0.000098 -0.000181
-0.000165 -0.000097 -0.000185
-0.000157 -0.000096 -0.000190
-0.000149 -0.000094 -0.000194
-0.000141 -0.000093 -0.000197
-0.000133 -0.000091 -0.000200
-0.000124 -0.000089 -0.000203
-0.000116 -0.000088 -0.000206
-0.000107 -0.000086 -0.000207
-0.000098 -0.000084 -0.000209
-0.000089 -0.000082 -0.000209
-0.000081 -0.000079 -0.000209
-0.000072 -0.000077 -0.000208
-0.000064 -0.000074 -0.000207
-0.000055 -0.000071 -0.000204
-0.000047 -0.000068 -0.000201
-0.000040 -0.000065 -0.000198
-0.000033 -0.000062 -0.000193
-0.000026 -0.000058 -0.000189
-0.000020 -0.000054 -0.000183
-0.000014 -0.000050 -0.000177
-0.000009 -0.000046 -0.000171
-0.000004 -0.000042 -0.000165
0.000001 -0.000038 -0.000158
0.000004 -0.000034 -0.000151
0.000008 -0.000030 -0.000143
0.000011 -0.000026 -0.000136
0.000013 -0.000022 -0.000128
0.000015 -0.000019 -0.000120
0.000017 -0.000015 -0.000112
0.000019 -0.000011 -0.000104
0.000020 -0.000007 -0.000096
0.000022 -0.000004 -0.000087
0.000023 -0.000000 -0.000079
0.000024 0.000003 -0.000071
0.000025 0.000007 -0.000063
0.000025 0.000010 -0.000054
0.000026 0.000013 -0.000046
0.000027 0.000017 -0.000037
0.000027 0.000020 -0.000029
0.000028 0.000023 -0.000021
0.000029 0.000027 -0.000012
0.000029 0.000030 -0.000004
0.000030 0.000034 0.000004
0.000031 0.000038 0.000012
0.000032 0.000042 0.000020
0.000034 0.000046 0.000028
0.000036 0.000051 0.000036
0.000037 0.000056 0.000043
0.000040 0.000061 0.000050
0.000043 0.000066 0.000057
0.000046 0.000071 0.000063
0.000050 0.000077 0.000069
0.000054 0.000083 0.000075
0.000059 0.000089 0.000079
0.000064 0.000096 0.000083
0.000070 0.000102 0.000086
0.000077 0.000108 0.000089
0.000083 0.000114 0.000090
0.000090 0.000119 0.000091
0.000097 0.000125 0.000091
0.000105 0.000130 0.000091
0.000112 0.000135 0.000090
0.000120 0.000140 0.000088
0.000127 0.000144 0.000086
0.000135 0.000148 0.000084
0.000143 0.000152 0.000081
0.000150 0.000156 0.000077
0.000158 0.000159 0.000074
0.000165 0.000163 0.000070
0.000173 0.000166 0.000066
0.000180 0.000169 0.000061
0.000188 0.000171 0.000057
0.000195 0.000173 0.000052
0.000202 0.000176 0.000047
0.000210 0.000178 0.000042
0.000217 0.000179 0.000037
0.000224 0.000181 0.000032
0.000232 0.000182 0.000027
0.000239 0.000183 0.000022
0.000247 0.000184 0.000017
0.000254 0.000185 0.000012
0.000262 0.000185 0.000007
0.000269 0.000186 0.000002
0.000277 0.000186 -0.000003
0.000284 0.000187 -0.000008
0.000292 0.000187 -0.000012
0.000300 0.000187 -0.000017
VECTORS Rotation float
0.696498 -0.102143 -0.246455
0.696251 -0.102869 -0.251376
0.695461 -0.104932 -0.266279
0.694036 -0.107954 -0.291305
0.691873 -0.111331 -0.326524
0.688814 -0.114320 -0.372296
0.684739 -0.116056 -0.428889
0.679618 -0.115613 -0.496340
0.673778 -0.112126 -0.573027
0.667414 -0.104814 -0.658957
0.661116 -0.093211 -0.752205
0.655555 -0.077219 -0.850578
0.651327 -0.057042 -0.952434
0.648970 -0.033293 -1.055983
0.648902 -0.007240 -1.158360
0.651197 0.020008 -1.258658
0.655751 0.046999 -1.355304
0.662249 0.072424 -1.447341
0.670255 0.095182 -1.534108
0.679253 0.114406 -1.614967
0.688793 0.129709 -1.690086
0.698384 0.140849 -1.758932
0.707668 0.148004 -1.821627
0.716391 0.151593 -1.878425
0.724353 0.152185 -1.929380
0.731467 0.150452 -1.974823
0.737672 0.147093 -2.014827
0.742960 0.142791 -2.049466
0.747386 0.138138 -2.079059
0.751004 0.133675 -2.103748
0.753883 0.129852 -2.123726
0.756104 0.126999 -2.139336
0.757721 0.125374 -2.150756
0.758774 0.125113 -2.158186
0.759261 0.126234 -2.161599
0.759172 0.128654 -2.161076
0.758475 0.132104 -2.156614
0.757114 0.136349 -2.148110
0.755051 0.141011 -2.135656
0.752213 0.145865 -2.119065
0.748554 0.150699 -2.098341
0.744008 0.155481 -2.073307
0.738492 0.160344 -2.043680
0.731865 0.165632 -2.008768
0.724046 0.171701 -1.968507
0.714834 0.179080 -1.922138
0.704079 0.188200 -1.869576
0.691587 0.199455 -1.810706
0.677087 0.213173 -1.745285
0.660457 0.229350 -1.674087
0.641508 0.247903 -1.597554
0.620121 0.268525 -1.516405
0.596305 0.290685 -1.431670
0.570169 0.313741 -1.344392
0.541938 0.336981 -1.255643
0.511894 0.359721 -1.166312
0.480462 0.381266 -1.077403
0.448080 0.401030 -0.989687
0.415205 0.418515 -0.903825
0.382306 0.433321 -0.820391
0.349867 0.445144 -0.739942
0.318389 0.453788 -0.663047
0.288097 0.459228 -0.589704
0.259768 0.461484 -0.521128
0.233300 0.460791 -0.456754
0.209719 0.457515 -0.398464
0.188518 0.452020 -0.345046
0.169950 0.444791 -0.296949
0.154381 0.436469 -0.254950
0.141551 0.427519 -0.218591
0.130952 0.418215 -0.186911
0.122792 0.409223 -0.160441
0.116541 0.400723 -0.138197
0.112004 0.393079 -0.119862
0.108992 0.386627 -0.105115
0.107430 0.381748 -0.093830
0.107009 0.378610 -0.085491
0.107711 0.377538 -0.080060
0.109481 0.378807 -0.077461
0.112314 0.382696 -0.077721
0.116274 0.389495 -0.080991
0.121494 0.399602 -0.087632
0.128223 0.413060 -0.097942
0.136867 0.430460 -0.112827
0.147929 0.451804 -0.132981
0.162016 0.476878 -0.159155
0.180284 0.506158 -0.193220
0.203762 0.538888 -0.236215
0.233820 0.574279 -0.289652
0.271981 0.611115 -0.355075
0.319743 0.647699 -0.433835
0.378268 0.681888 -0.526789
0.447130 0.710906 -0.632588
0.527119 0.732991 -0.752400
0.613927 0.745533 -0.880229
0.704698 0.747562 -1.013032
0.793840 0.739060 -1.143980
0.878342 0.721043 -1.269954
0.954287 0.695684 -1.385940
1.022005 0.664579 -1.492849
1.079479 0.630754 -1.587275
1.128060 0.595824 -1.670768
1.168645 0.561346 -1.743978
1.202664 0.527968 -1.808535
1.231288 0.495934 -1.865772
1.255165 0.465598 -1.916103
1.275106 0.436739 -1.960435
1.291740 0.409032 -1.999473
1.305564 0.382104 -2.033786
1.316971 0.355587 -2.063835
1.326210 0.329361 -2.089780
1.333564 0.303151 -2.111969
1.339200 0.277086 -2.130419
1.343323 0.251175 -2.145306
1.346130 0.225512 -2.156786
1.347805 0.200337 -2.164991
1.348545 0.175869 -2.170105
1.348540 0.152400 -2.172343
1.347983 0.130215 -2.171981
1.347057 0.109605 -2.169376
1.345931 0.090888 -2.164988
1.344749 0.074275 -2.159355
1.343625 0.060022 -2.153111
1.342642 0.048227 -2.146876
1.341849 0.039030 -2.141290
1.341274 0.032432 -2.136860
1.340926 0.028494 -2.134032
1.340810 0.027178 -2.133055
VECTORS ControlForce float
0.000000 0.000000 0.000000
-0.000025 0.000250 0.000097
-0.000074 0.000455 0.000212
-0.000146 0.000589 0.000319
-0.000241 0.000632 0.000397
-0.000363 0.000576 0.000456
-0.000512 0.000423 0.000503
-0.000674 0.000189 0.000529
-0.000826 -0.000102 0.000511
-0.000924 -0.000409 0.000441
-0.000940 -0.000702 0.000324
-0.000835 -0.000937 0.000164
-0.000626 -0.001090 -0.000008
-0.000346 -0.001144 -0.000166
-0.000062 -0.001110 -0.000290
0.000177 -0.000998 -0.000373
0.000336 -0.000822 -0.000414
0.000398 -0.000605 -0.000420
0.000397 -0.000344 -0.000400
0.000356 -0.000063 -0.000356
0.000262 0.000184 -0.000295
0.000131 0.000374 -0.000234
-0.000002 0.000503 -0.000181
-0.000116 0.000566 -0.000139
-0.000196 0.000574 -0.000108
-0.000237 0.000540 -0.000085
-0.000233 0.000494 -0.000067
-0.000188 0.000457 -0.000050
-0.000124 0.000426 -0.000032
-0.000063 0.000392 -0.000019
-0.000021 0.000333 -0.000015
0.000006 0.000242 -0.000015
0.000031 0.000124 -0.000016
0.000060 -0.000007 -0.000014
0.000108 -0.000123 -0.000011
0.000163 -0.000202 0.000002
0.000204 -0.000234 0.000018
0.000204 -0.000222 0.000044
0.000125 -0.000190 0.000070
-0.000033 -0.000151 0.000099
-0.000230 -0.000096 0.000135
-0.000438 -0.000036 0.000172
-0.000597 0.000047 0.000219
-0.000699 0.000127 0.000270
-0.000721 0.000205 0.000318
-0.000626 0.000302 0.000366
-0.000427 0.000409 0.000398
-0.000176 0.000492 0.000401
0.000077 0.000522 0.000372
0.000313 0.000499 0.000311
0.000512 0.000431 0.000225
0.000644 0.000323 0.000122
0.000695 0.000189 0.000013
0.000669 0.000044 -0.000090
0.000578 -0.000101 -0.000175
0.000452 -0.000233 -0.000235
0.000324 -0.000336 -0.000272
0.000206 -0.000405 -0.000286
0.000105 -0.000443 -0.000280
0.000036 -0.000443 -0.000261
0.000004 -0.000401 -0.000239
0.000015 -0.000315 -0.000230
0.000048 -0.000198 -0.000235
0.000067 -0.000082 -0.000245
0.000065 0.000027 -0.000261
0.000029 0.000108 -0.000282
-0.000030 0.000164 -0.000295
-0.000100 0.000196 -0.000298
-0.000177 0.000198 -0.000296
-0.000244 0.000188 -0.000290
-0.000288 0.000187 -0.000280
-0.000304 0.000193 -0.000270
-0.000290 0.000205 -0.000248
-0.000254 0.000214 -0.000203
-0.000204 0.000220 -0.000148
-0.000147 0.000223 -0.000095
-0.000087 0.000236 -0.000044
-0.000022 0.000249 0.000010
0.000053 0.000267 0.000054
0.000143 0.000294 0.000084
0.000245 0.000314 0.000121
0.000351 0.000326 0.000162
0.000454 0.000320 0.000203
0.000540 0.000288 0.000251
0.000604 0.000221 0.000303
0.000634 0.000120 0.000347
0.000617 -0.000024 0.000410
0.000541 -0.000191 0.000473
0.000399 -0.000358 0.000518
0.000191 -0.000507 0.000534
-0.000072 -0.000630 0.000520
-0.000357 -0.000693 0.000458
-0.000626 -0.000677 0.000350
-0.000850 -0.000613 0.000228
-0.001007 -0.000505 0.000091
-0.001063 -0.000349 -0.000055
-0.001022 -0.000185 -0.000190
-0.000888 -0.000032 -0.000297
-0.000683 0.000080 -0.000360
-0.000427 0.000160 -0.000373
-0.000150 0.000191 -0.000356
0.000122 0.000187 -0.000320
0.000357 0.000147 -0.000271
0.000541 0.000107 -0.000205
0.000657 0.000081 -0.000120
0.000700 0.000070 -0.000033
0.000672 0.000059 0.000042
0.000585 0.000042 0.000098
0.000460 0.000018 0.000136
0.000325 0.000010 0.000163
0.000194 0.000010 0.000179
0.000077 0.000015 0.000187
-0.000010 0.000047 0.000191
-0.000080 0.000081 0.000185
-0.000129 0.000124 0.000176
-0.000165 0.000168 0.000159
-0.000185 0.000224 0.000138
-0.000187 0.000299 0.000117
-0.000165 0.000403 0.000101
-0.000124 0.000506 0.000086
-0.000068 0.000582 0.000068
-0.000002 0.000635 0.000056
0.000054 0.000631 0.000038
0.000089 0.000560 0.000017
0.000102 0.000455 0.000002
0.000091 0.000331 -0.000001
0.000055 0.000183 -0.000001
0.000000 -0.000000 -0.000000
VECTORS ControlTorque float
-0.000001 -0.000004 -0.000000
-0.000001 -0.000004 -0.000000
-0.000000 -0.000004 -0.000000
-0.000000 -0.000004 -0.000000
-0.000000 -0.000004 -0.000000
0.000000 -0.000004 -0.000001
0.000000 -0.000005 -0.000001
0.000001 -0.000003 -0.000001
0.000001 -0.000004 -0.000001
0.000001 -0.000003 -0.000001
0.000001 -0.000002 -0.000001
0.000001 -0.000002 -0.000001
0.000001 -0.000001 -0.000001
0.000000 0.000001 -0.000001
0.000000 0.000000 -0.000001
-0.000000 0.000002 -0.000000
-0.000000 0.000002 0.000000
-0.000000 0.000002 0.000001
-0.000000 0.000003 0.000001
-0.000000 0.000002 0.000001
-0.000000 0.000003 0.000002
-0.000000 0.000003 0.000001
-0.000000 0.000002 0.000001
-0.000000 0.000002 0.000001
-0.000000 0.000002 0.000001
-0.000000 0.000002 0.000001
-0.000000 0.000002 0.000000
-0.000000 0.000002 0.000000
-0.000000 0.000002 0.000000
-0.000000 0.000002 -0.000000
-0.000000 0.000002 -0.000000
-0.000000 0.000002 -0.000000
-0.000000 0.000002 -0.000000
-0.000001 0.000002 -0.000000
-0.000001 0.000002 -0.000000
-0.000000 0.000002 -0.000000
-0.000000 0.000002 -0.000000
-0.000000 0.000001 0.000000
-0.000000 0.000002 0.000000
-0.000000 0.000002 0.000000
-0.000000 0.000002 0.000000
-0.000000 0.000002 0.000000
-0.000001 0.000002 -0.000000
-0.000000 0.000002 -0.000000
-0.000001 0.000003 -0.000000
-0.000001 0.000002 -0.000001
-0.000001 0.000002 -0.000001
-0.000001 0.000003 -0.000001
-0.000001 0.000002 -0.000001
-0.000001 0.000002 -0.000001
-0.000000 0.000002 -0.000001
-0.000000 0.000001 -0.000001
0.000000 0.000001 -0.000001
0.000000 0.000000 -0.000001
0.000000 -0.000000 -0.000001
0.000001 -0.000001 -0.000000
0.000001 -0.000001 -0.000000
0.000001 -0.000001 0.000000
0.000000 -0.000001 0.000000
0.000000 -0.000001 0.000001
0.000000 -0.000002 0.000001
-0.000000 -0.000001 0.000001
0.000000 -0.000002 0.000001
-0.000000 -0.000000 0.000000
0.000000 -0.000003 0.000002
-0.000000 -0.000001 0.000001
-0.000000 -0.000002 0.000001
0.000000 -0.000002 0.000001
0.000000 -0.000002 0.000001
-0.000000 -0.000001 0.000000
0.000001 -0.000002 0.000001
0.000000 -0.000001 0.000000
0.000001 -0.000001 0.000001
0.000001 -0.000001 0.000000
0.000001 -0.000001 0.000000
0.000001 -0.000001 0.000000
0.000001 -0.000001 0.000000
0.000001 -0.000001 0.000000
0.000001 -0.000001 0.000000
0.000001 -0.000001 0.000000
0.000002 -0.000001 0.000000
0.000001 -0.000001 0.000000
0.000002 -0.000002 0.000001
0.000002 -0.000002 0.000001
0.000001 -0.000001 0.000001
0.000003 -0.000003 0.000001
0.000002 -0.000002 0.000001
0.000002 -0.000003 0.000001
0.000002 -0.000003 0.000001
0.000001 -0.000003 0.000001
0.000002 -0.000003 0.000002
-0.000000 -0.000001 0.000001
0.000002 -0.000004 0.000002
-0.000001 0.000000 0.000001
0.000001 -0.000002 0.000002
-0.000001 0.000001 0.000000
0.000000 -0.000001 0.000001
-0.000002 0.000002 -0.000001
0.000000 -0.000001 0.000001
-0.000002 0.000003 -0.000002
-0.000001 0.000001 -0.000001
-0.000002 0.000002 -0.000001
-0.000001 0.000002 -0.000001
-0.000001 0.000001 -0.000001
-0.000001 0.000002 -0.000001
-0.000001 0.000001 -0.000001
-0.000001 0.000001 -0.000000
-0.000001 0.000001 -0.000000
-0.000001 0.000001 0.000000
-0.000001 0.000001 -0.000000
-0.000000 0.000001 0.000000
-0.000000 0.000001 0.000000
-0.000000 0.000001 0.000000
-0.000000 0.000001 0.000000
-0.000000 0.000001 -0.000000
-0.000000 0.000001 -0.000000
-0.000000 0.000001 -0.000000
-0.000000 0.000001 -0.000000
-0.000000 0.000001 -0.000000
-0.000001 0.000001 -0.000001
-0.000001 0.000001 -0.000001
-0.000001 0.000000 -0.000001
-0.000001 0.000000 -0.000001
-0.000001 -0.000000 -0.000001
-0.000001 -0.000000 -0.000001
-0.000001 -0.000001 -0.000001
-0.000000 -0.000001 -0.000001
-0.000001 -0.000001 -0.000001
VECTORS Curvature float
-161.340338 266.310211 -16.466197
-531.106716 862.644269 -51.566203
-1200.190602 1898.289185 -111.573093
-1830.877547 2771.036796 -161.585211
-2542.992920 3641.153935 -209.304611
-3338.441405 4489.580719 -250.892952
-4267.232541 5364.027387 -285.243818
-5139.790134 6038.823445 -310.495328
-6017.571683 6600.626960 -325.748681
-6952.762907 7137.951364 -329.995574
-7687.748855 7399.814332 -322.575428
-8299.902403 7515.822332 -304.467851
-8855.921522 7577.218856 -277.256743
-9106.422693 7413.775082 -241.338434
-9126.103175 7129.706094 -203.028640
-9019.495169 6844.809319 -162.518323
-8662.623568 6478.073940 -124.938139
-8180.393936 6131.151272 -92.153638
-7541.270246 5767.201098 -65.648024
-6865.957802 5457.720490 -46.820635
-6152.998963 5169.038504 -34.131840
-5381.411467 4849.173868 -27.672481
-4682.568451 4574.122617 -25.332832
-4023.128002 4285.454630 -25.712985
-3427.092467 3986.547303 -27.445121
-2904.695028 3676.534619 -29.426219
-2418.997891 3307.696208 -30.973908
-2000.074478 2923.088342 -31.598142
-1642.946770 2527.415323 -31.174119
-1322.037404 2095.468708 -29.567932
-1055.136622 1668.462072 -26.731020
-829.553480 1244.980774 -22.643177
-634.015102 823.396868 -17.248889
-443.638164 399.119756 -10.425236
-251.891974 -25.091754 -2.197327
-52.720027 -421.524453 7.570575
176.556583 -811.685307 18.704852
424.709154 -1174.202352 31.182129
701.191163 -1516.455060 44.702454
1002.509117 -1860.258948 58.944958
1311.041645 -2190.269930 73.458076
1617.963265 -2533.646862 87.717030
1955.455836 -2970.598767 101.101124
2273.572644 -3456.756070 112.659992
2566.315390 -4007.417870 121.915724
2849.560742 -4663.474958 127.835289
3052.537493 -5315.508479 129.780376
3235.913064 -6063.646038 127.343840
3345.430754 -6798.030086 119.327882
3358.465799 -7447.435013 106.124575
3322.502873 -8073.094298 87.265911
3214.409680 -8584.247878 63.046743
3046.717913 -8957.042042 34.300946
2837.077684 -9182.817426 1.916427
2609.473736 -9282.388206 -32.561362
2378.185519 -9252.962509 -67.977681
2156.258106 -9095.445973 -102.441202
1964.194309 -8855.558129 -134.682178
1809.098876 -8543.947408 -163.414353
1697.572768 -8183.389854 -187.781478
1619.186192 -7738.899404 -207.433455
1599.348786 -7348.123276 -222.214848
1586.346233 -6846.887975 -233.119801
1615.571696 -6400.524633 -240.452247
1620.413268 -5851.970159 -245.528663
1615.780079 -5256.171593 -249.411378
1660.701026 -4876.711034 -252.738111
1622.045215 -4298.349511 -255.947771
1531.620033 -3674.501039 -259.815996
1490.468369 -3244.646317 -264.408369
1393.956799 -2778.820534 -268.985349
1253.977453 -2300.366096 -274.453673
1135.546700 -1948.892124 -279.779726
974.897604 -1596.641704 -285.103423
769.908773 -1247.606916 -290.087850
549.602310 -943.428434 -294.582633
314.850419 -681.652497 -298.165755
38.104108 -409.274368 -300.664390
-265.419591 -150.590632 -301.808402
-594.232782 108.468070 -301.324784
-987.058075 392.895579 -299.097787
-1387.461456 688.620971 -294.692237
-1834.846315 1028.617060 -288.315966
-2382.132047 1453.790989 -279.462031
-2848.776056 1867.452846 -267.616833
-3417.561914 2398.967160 -253.996963
-4062.027679 3042.071724 -236.556731
-4620.355485 3694.347959 -216.858507
-5181.242876 4422.042308 -194.503754
-5679.817661 5170.534058 -170.032410
-6157.631796 5978.831431 -144.965928
-6380.763737 6576.489794 -117.978208
-6668.199485 7304.754997 -96.741212
-6847.557928 7891.796383 -74.115020
-6787.157420 8224.387170 -60.178992
-6672.361598 8411.624208 -50.949023
-6459.291633 8440.131156 -47.005654
-6163.888442 8248.850311 -49.163803
-5909.734978 8058.723150 -49.508077
-5639.225359 7731.839248 -56.265696
-5167.290732 7083.653882 -58.375962
-4805.791363 6531.777672 -62.341896
-4412.665057 5927.001138 -64.344855
-4118.136421 5469.100774 -66.178003
-3786.799862 5002.501941 -68.240860
-3416.271877 4545.521893 -69.031943
-3073.245799 4191.919336 -69.351980
-2731.695237 3906.663539 -68.561624
-2407.036753 3707.705151 -66.215963
-2070.787282 3539.079799 -62.110094
-1737.042866 3415.994001 -55.304246
-1404.666095 3315.056014 -46.140396
-1059.887267 3193.956951 -34.032071
-729.127918 3094.543938 -19.499215
-404.255223 2976.425469 -3.058263
-92.450733 2836.309379 14.470132
198.796193 2675.038755 31.967445
462.225340 2484.724908 48.234794
689.524139 2273.792170 62.046874
865.595220 2034.223310 72.342250
983.869410 1780.727378 78.266096
1030.976591 1514.416483 79.372444
1005.960484 1245.428775 75.477527
908.229222 980.854627 66.920014
743.847717 721.455732 54.029836
534.982536 479.342257 38.434652
251.271961 214.850275 18.089478
82.029879 68.298013 5.680723
VECTORS LocalRotation float
0.940382 -0.251999 0.063517
0.937240 -0.246875 0.063208
0.929432 -0.234425 0.062472
0.915766 -0.213372 0.061241
0.895923 -0.184282 0.059558
0.869207 -0.147348 0.057468
0.834754 -0.102712 0.055039
0.792400 -0.051372 0.052357
0.741709 0.006053 0.049466
0.683066 0.068169 0.046501
0.616856 0.133914 0.043550
0.544303 0.201603 0.040705
0.466541 0.270015 0.038068
0.385466 0.337677 0.035727
0.302778 0.403636 0.033712
0.220671 0.466869 0.032058
0.140628 0.527178 0.030756
0.064364 0.584272 0.029773
-0.006810 0.638138 0.029059
-0.072149 0.689044 0.028549
-0.130977 0.737062 0.028183
-0.183211 0.782430 0.027903
-0.228835 0.825150 0.027663
-0.268257 0.865269 0.027432
-0.302018 0.902754 0.027191
-0.330642 0.937396 0.026934
-0.354700 0.968958 0.026661
-0.374716 0.997181 0.026378
-0.391194 1.021834 0.026094
-0.404618 1.042764 0.025819
-0.415415 1.059860 0.025563
-0.423960 1.073069 0.025339
-0.430593 1.082443 0.025158
-0.435449 1.087952 0.025034
-0.438613 1.089653 0.024976
-0.439984 1.087643 0.025000
-0.439420 1.082031 0.025120
-0.436706 1.073066 0.025345
-0.431593 1.060847 0.025690
-0.423900 1.045600 0.026158
-0.413440 1.027286 0.026756
-0.400169 1.005882 0.027487
-0.383930 0.980870 0.028345
-0.364840 0.951855 0.029310
-0.342893 0.918009 0.030373
-0.318424 0.878834 0.031502
-0.291709 0.833666 0.032668
-0.263184 0.782047 0.033834
-0.233437 0.723915 0.034949
-0.203059 0.659362 0.035971
-0.172782 0.589026 0.036847
-0.143189 0.513617 0.037528
-0.114846 0.434212 0.037968
-0.088210 0.352092 0.038132
-0.063543 0.268466 0.037993
-0.040972 0.184585 0.037538
-0.020442 0.101512 0.036767
-0.001783 0.020221 0.035693
0.015304 -0.058571 0.034343
0.031181 -0.134304 0.032753
0.046202 -0.206413 0.030963
0.060801 -0.274846 0.029014
0.075186 -0.338945 0.026958
0.089730 -0.399117 0.024807
0.104298 -0.454276 0.022619
0.119082 -0.505021 0.020358
0.133890 -0.550818 0.018089
0.148639 -0.592041 0.015803
0.162962 -0.628252 0.013461
0.176753 -0.659825 0.011069
0.189724 -0.686912 0.008670
0.201796 -0.710069 0.006193
0.212613 -0.729305 0.003684
0.222128 -0.745289 0.001137
0.229981 -0.758090 -0.001452
0.235994 -0.768076 -0.004116
0.239890 -0.775400 -0.006788
0.241484 -0.780327 -0.009493
0.240455 -0.782862 -0.012220
0.236555 -0.783053 -0.014957
0.229368 -0.780774 -0.017686
0.218689 -0.775911 -0.020356
0.203996 -0.768080 -0.023015
0.184978 -0.756885 -0.025575
0.161370 -0.741896 -0.028044
0.132729 -0.722396 -0.030428
0.098939 -0.697815 -0.032645
0.059691 -0.667364 -0.034694
0.015359 -0.630654 -0.036555
-0.033768 -0.587265 -0.038204
-0.087291 -0.536853 -0.039628
-0.143929 -0.480138 -0.040816
-0.203488 -0.416780 -0.041796
-0.264255 -0.348456 -0.042564
-0.326083 -0.275376 -0.043173
-0.386843 -0.200277 -0.043674
-0.446560 -0.123642 -0.044120
-0.503666 -0.048143 -0.044555
-0.558696 0.026185 -0.045005
-0.610456 0.096955 -0.045479
-0.659389 0.164041 -0.045998
-0.704558 0.225706 -0.046545
-0.746498 0.282389 -0.047121
-0.785230 0.334130 -0.047714
-0.820879 0.381354 -0.048320
-0.853449 0.424527 -0.048941
-0.882834 0.464090 -0.049567
-0.909145 0.500797 -0.050192
-0.932439 0.535314 -0.050803
-0.952698 0.568100 -0.051384
-0.969964 0.599637 -0.051916
-0.984161 0.630054 -0.052375
-0.995326 0.659542 -0.052738
-1.003435 0.688043 -0.052980
-1.008565 0.715524 -0.053083
-1.010814 0.741846 -0.053031
-1.010333 0.766793 -0.052821
-1.007340 0.790155 -0.052458
-1.002125 0.811700 -0.051958
-0.995087 0.831196 -0.051350
-0.986707 0.848482 -0.050668
-0.977590 0.863393 -0.049954
-0.968356 0.875903 -0.049252
-0.959697 0.885974 -0.048608
-0.952210 0.893689 -0.048060
-0.946433 0.899114 -0.047642
-0.942865 0.902264 -0.047386
-0.941359 0.903543 -0.047278
VECTORS q1 float
0.727955 -0.638192 -0.250584
0.726757 -0.637955 -0.254633
0.723040 -0.637215 -0.266776
0.716493 -0.635921 -0.286779
0.706630 -0.634031 -0.314132
0.692739 -0.631473 -0.348358
0.673972 -0.628216 -0.388723
0.649430 -0.624300 -0.434154
0.618789 -0.620025 -0.482358
0.581331 -0.615560 -0.532109
0.537293 -0.611333 -0.581023
0.487483 -0.607783 -0.626865
0.432863 -0.605256 -0.668053
0.374766 -0.604031 -0.703347
0.315362 -0.604296 -0.731692
0.255791 -0.606018 -0.753202
0.197463 -0.609081 -0.768133
0.141266 -0.613280 -0.777130
0.087741 -0.618374 -0.780970
0.037289 -0.624105 -0.780450
-0.010247 -0.630266 -0.776311