# vtk DataFile Version 2.0
VTK example
ASCII
DATASET UNSTRUCTURED_GRID
POINTS  128  float
-0.000222 -0.000103 -0.000172
-0.000214 -0.000105 -0.000175
-0.000206 -0.000106 -0.000179
-0.000198 -0.000108 -0.000183
-0.000190 -0.000109 -0.000186
-0.000182 -0.000110 -0.000190
-0.000173 -0.000111 -0.000193
-0.000165 -0.000111 -0.000197
-0.000156 -0.000111 -0.000200
-0.000148 -0.000111 -0.000203
-0.000139 -0.000111 -0.000206
-0.000131 -0.000110 -0.000208
-0.000122 -0.000109 -0.000211
-0.000113 -0.000107 -0.000212
-0.000105 -0.000105 -0.000214
-0.000096 -0.000103 -0.000215
-0.000087 -0.000100 -0.000215
-0.000079 -0.000097 -0.000215
-0.000070 -0.000093 -0.000215
-0.000062 -0.000090 -0.000213
-0.000055 -0.000085 -0.000211
-0.000047 -0.000081 -0.000208
-0.000040 -0.000076 -0.000204
-0.000034 -0.000072 -0.000200
-0.000028 -0.000067 -0.000195
-0.000023 -0.000062 -0.000190
-0.000018 -0.000057 -0.000184
-0.000014 -0.000052 -0.000177
-0.000010 -0.000047 -0.000170
-0.000007 -0.000043 -0.000163
-0.000005 -0.000039 -0.000156
-0.000003 -0.000035 -0.000148
-0.000001 -0.000031 -0.000140
-0.000000 -0.000027 -0.000132
0.000001 -0.000024 -0.000123
0.000002 -0.000020 -0.000115
0.000002 -0.000017 -0.000106
0.000003 -0.000014 -0.000098
0.000003 -0.000011 -0.000089
0.000003 -0.000008 -0.000081
0.000004 -0.000005 -0.000072
0.000004 -0.000002 -0.000064
0.000005 0.000001 -0.000055
0.000005 0.000005 -0.000047
0.000006 0.000008 -0.000039
0.000006 0.000012 -0.000030
0.000007 0.000016 -0.000022
0.000008 0.000020 -0.000014
0.000010 0.000024 -0.000007
0.000011 0.000029 0.000001
0.000013 0.000034 0.000009
0.000014 0.000039 0.000016
0.000017 0.000044 0.000023
0.000019 0.000050 0.000030
0.000022 0.000055 0.000036
0.000025 0.000061 0.000043
0.000028 0.000067 0.000049
0.000032 0.000073 0.000054
0.000036 0.000079 0.000059
0.000041 0.000085 0.000064
0.000045 0.000092 0.000069
0.000051 0.000098 0.000073
0.000056 0.000104 0.000076
0.000062 0.000111 0.000079
0.000068 0.000117 0.000082
0.000075 0.000123 0.000084
0.000081 0.000129 0.000085
0.000088 0.000134 0.000086
0.000095 0.000140 0.000087
0.000103 0.000145 0.000086
0.000110 0.000150 0.000086
0.000118 0.000155 0.000085
0.000126 0.000159 0.000083
0.000133 0.000163 0.000081
0.000141 0.000167 0.000079
0.000149 0.000171 0.000076
0.000157 0.000174 0.000073
0.000165 0.000177 0.000069
0.000173 0.000179 0.000065
0.000180 0.000181 0.000061
0.000188 0.000183 0.000057
0.000196 0.000185 0.000052
0.000204 0.000186 0.000048
0.000211 0.000187 0.000043
0.000219 0.000188 0.000038
0.000227 0.000188 0.000034
0.000235 0.000189 0.000030
0.000243 0.000189 0.000025
0.000251 0.000189 0.000021
0.000259 0.000190 0.000017
0.000267 0.000190 0.000014
0.000276 0.000190 0.000011
0.000285 0.000190 0.000008
0.000293 0.000190 0.000005
0.000302 0.000190 0.000003
0.000311 0.000190 0.000002
0.000320 0.000190 0.000001
0.000329 0.000191 0.000001
0.000338 0.000191 0.000001
0.000347 0.000191 0.000002
0.000356 0.000192 0.000003
0.000365 0.000192 0.000005
0.000373 0.000193 0.000008
0.000382 0.000194 0.000012
0.000390 0.000195 0.000016
0.000397 0.000197 0.000020
0.000404 0.000200 0.000025
0.000411 0.000202 0.000031
0.000417 0.000205 0.000037
0.000422 0.000209 0.000043
0.000427 0.000213 0.000050
0.000431 0.000217 0.000057
0.000434 0.000222 0.000064
0.000437 0.000227 0.000071
0.000439 0.000232 0.000078
0.000441 0.000237 0.000085
0.000442 0.000242 0.000093
0.000442 0.000248 0.000100
0.000443 0.000253 0.000107
0.000442 0.000258 0.000115
0.000442 0.000263 0.000122
0.000441 0.000269 0.000129
0.000440 0.000274 0.000137
0.000439 0.000279 0.000144
0.000438 0.000284 0.000152
0.000437 0.000289 0.000159
0.000435 0.000294 0.000166
0.000434 0.000299 0.000174
CELLS  127 381
2 0 1 
2 1 2 
2 2 3 
2 3 4 
2 4 5 
2 5 6 
2 6 7 
2 7 8 
2 8 9 
2 9 10 
2 10 11 
2 11 12 
2 12 13 
2 13 14 
2 14 15 
2 15 16 
2 16 17 
2 17 18 
2 18 19 
2 19 20 
2 20 21 
2 21 22 
2 22 23 
2 23 24 
2 24 25 
2 25 26 
2 26 27 
2 27 28 
2 28 29 
2 29 30 
2 30 31 
2 31 32 
2 32 33 
2 33 34 
2 34 35 
2 35 36 
2 36 37 
2 37 38 
2 38 39 
2 39 40 
2 40 41 
2 41 42 
2 42 43 
2 43 44 
2 44 45 
2 45 46 
2 46 47 
2 47 48 
2 48 49 
2 49 50 
2 50 51 
2 51 52 
2 52 53 
2 53 54 
2 54 55 
2 55 56 
2 56 57 
2 57 58 
2 58 59 
2 59 60 
2 60 61 
2 61 62 
2 62 63 
2 63 64 
2 64 65 
2 65 66 
2 66 67 
2 67 68 
2 68 69 
2 69 70 
2 70 71 
2 71 72 
2 72 73 
2 73 74 
2 74 75 
2 75 76 
2 76 77 
2 77 78 
2 78 79 
2 79 80 
2 80 81 
2 81 82 
2 82 83 
2 83 84 
2 84 85 
2 85 86 
2 86 87 
2 87 88 
2 88 89 
2 89 90 
2 90 91 
2 91 92 
2 92 93 
2 93 94 
2 94 95 
2 95 96 
2 96 97 
2 97 98 
2 98 99 
2 99 100 
2 100 101 
2 101 102 
2 102 103 
2 103 104 
2 104 105 
2 105 106 
2 106 107 
2 107 108 
2 108 109 
2 109 110 
2 110 111 
2 111 112 
2 112 113 
2 113 114 
2 114 115 
2 115 116 
2 116 117 
2 117 118 
2 118 119 
2 119 120 
2 120 121 
2 121 122 
2 122 123 
2 123 124 
2 124 125 
2 125 126 
2 126 127 
CELL_TYPES  127
3
3
3
3
3
3
3
3
3
3
3
3
3
3
3
3
3
3
3
3
3
3
3
3
3
3
3
3
3
3
3
3
3
3
3
3
3
3
3
3
3
3
3
3
3
3
3
3
3
3
3
3
3
3
3
3
3
3
3
3
3
3
3
3
3
3
3
3
3
3
3
3
3
3
3
3
3
3
3
3
3
3
3
3
3
3
3
3
3
3
3
3
3
3
3
3
3
3
3
3
3
3
3
3
3
3
3
3
3
3
3
3
3
3
3
3
3
3
3
3
3
3
3
3
3
3
3
POINT_DATA  128
VECTORS Position float
-0.000222 -0.000103 -0.000172
-0.000214 -0.000105 -0.000175
-0.000206 -0.000106 -0.000179
-0.000198 -0.000108 -0.000183
-0.000190 -0.000109 -0.000186
-0.000182 -0.000110 -0.000190
-0.000173 -0.000111 -0.000193
-0.000165 -0.000111 -0.000197
-0.000156 -0.000111 -0.000200
-0.000148 -0.000111 -0.000203
-0.000139 -0.000111 -0.000206
-0.000131 -0.000110 -0.000208
-0.000122 -0.000109 -0.000211
-0.000113 -0.000107 -0.000212
-0.000105 -0.000105 -0.000214
-0.000096 -0.000103 -0.000215
-0.000087 -0.000100 -0.000215
-0.000079 -0.000097 -0.000215
-0.000070 -0.000093 -0.000215
-0.000062 -0.000090 -0.000213
-0.000055 -0.000085 -0.000211
-0.000047 -0.000081 -0.000208
-0.000040 -0.000076 -0.000204
-0.000034 -0.000072 -0.000200
-0.000028 -0.000067 -0.000195
-0.000023 -0.000062 -0.000190
-0.000018 -0.000057 -0.000184
-0.000014 -0.000052 -0.000177
-0.000010 -0.000047 -0.000170
-0.000007 -0.000043 -0.000163
-0.000005 -0.000039 -0.000156
-0.000003 -0.000035 -0.000148
-0.000001 -0.000031 -0.000140
-0.000000 -0.000027 -0.000132
0.000001 -0.000024 -0.000123
0.000002 -0.000020 -0.000115
0.000002 -0.000017 -0.000106
0.000003 -0.000014 -0.000098
0.000003 -0.000011 -0.000089
0.000003 -0.000008 -0.000081
0.000004 -0.000005 -0.000072
0.000004 -0.000002 -0.000064
0.000005 0.000001 -0.000055
0.000005 0.000005 -0.000047
0.000006 0.000008 -0.000039
0.000006 0.000012 -0.000030
0.000007 0.000016 -0.000022
0.000008 0.000020 -0.000014
0.000010 0.000024 -0.000007
0.000011 0.000029 0.000001
0.000013 0.000034 0.000009
0.000014 0.000039 0.000016
0.000017 0.000044 0.000023
0.000019 0.000050 0.000030
0.000022 0.000055 0.000036
0.000025 0.000061 0.000043
0.000028 0.000067 0.000049
0.000032 0.000073 0.000054
0.000036 0.000079 0.000059
0.000041 0.000085 0.000064
0.000045 0.000092 0.000069
0.000051 0.000098 0.000073
0.000056 0.000104 0.000076
0.000062 0.000111 0.000079
0.000068 0.000117 0.000082
0.000075 0.000123 0.000084
0.000081 0.000129 0.000085
0.000088 0.000134 0.000086
0.000095 0.000140 0.000087
0.000103 0.000145 0.000086
0.000110 0.000150 0.000086
0.000118 0.000155 0.000085
0.000126 0.000159 0.000083
0.000133 0.000163 0.000081
0.000141 0.000167 0.000079
0.000149 0.000171 0.000076
0.000157 0.000174 0.000073
0.000165 0.000177 0.000069
0.000173 0.000179 0.000065
0.000180 0.000181 0.000061
0.000188 0.000183 0.000057
0.000196 0.000185 0.000052
0.000204 0.000186 0.000048
0.000211 0.000187 0.000043
0.000219 0.000188 0.000038
0.000227 0.000188 0.000034
0.000235 0.000189 0.000030
0.000243 0.000189 0.000025
0.000251 0.000189 0.000021
0.000259 0.000190 0.000017
0.000267 0.000190 0.000014
0.000276 0.000190 0.000011
0.000285 0.000190 0.000008
0.000293 0.000190 0.000005
0.000302 0.000190 0.000003
0.000311 0.000190 0.000002
0.000320 0.000190 0.000001
0.000329 0.000191 0.000001
0.000338 0.000191 0.000001
0.000347 0.000191 0.000002
0.000356 0.000192 0.000003
0.000365 0.000192 0.000005
0.000373 0.000193 0.000008
0.000382 0.000194 0.000012
0.000390 0.000195 0.000016
0.000397 0.000197 0.000020
0.000404 0.000200 0.000025
0.000411 0.000202 0.000031
0.000417 0.000205 0.000037
0.000422 0.000209 0.000043
0.000427 0.000213 0.000050
0.000431 0.000217 0.000057
0.000434 0.000222 0.000064
0.000437 0.000227 0.000071
0.000439 0.000232 0.000078
0.000441 0.000237 0.000085
0.000442 0.000242 0.000093
0.000442 0.000248 0.000100
0.000443 0.000253 0.000107
0.000442 0.000258 0.000115
0.000442 0.000263 0.000122
0.000441 0.000269 0.000129
0.000440 0.000274 0.000137
0.000439 0.000279 0.000144
0.000438 0.000284 0.000152
0.000437 0.000289 0.000159
0.000435 0.000294 0.000166
0.000434 0.000299 0.000174
VECTORS Rotation float
0.822974 -0.162532 -2.003937
0.823251 -0.159764 -2.002600
0.824043 -0.151480 -1.998611
0.825241 -0.137879 -1.992085
0.826679 -0.119340 -1.983185
0.828171 -0.096174 -1.971955
0.829510 -0.068758 -1.958325
0.830474 -0.037507 -1.942069
0.830808 -0.003445 -1.923088
0.830233 0.033363 -1.900612
0.828393 0.072246 -1.874109
0.824863 0.112651 -1.842959
0.819116 0.154412 -1.806284
0.810525 0.197366 -1.763236
0.798482 0.240864 -1.713550
0.782223 0.284921 -1.656334
0.761078 0.329019 -1.591318
0.734406 0.372584 -1.518251
0.701694 0.414820 -1.437071
0.662731 0.454592 -1.348194
0.617364 0.490842 -1.251721
0.566317 0.521997 -1.149214
0.510555 0.546800 -1.042069
0.451475 0.564213 -0.932028
0.391124 0.573483 -0.821684
0.331485 0.574406 -0.713289
0.274788 0.567289 -0.609610
0.222943 0.553032 -0.513116
0.176995 0.532885 -0.425122
0.137681 0.508490 -0.346911
0.105133 0.481654 -0.279114
0.078811 0.453971 -0.221370
0.058108 0.427067 -0.173387
0.042142 0.402167 -0.134287
0.030310 0.380738 -0.103811
0.021620 0.363181 -0.080449
0.015580 0.350392 -0.063739
0.011538 0.342405 -0.052441
0.009137 0.339403 -0.045891
0.008068 0.341249 -0.043315
0.008165 0.347708 -0.044212
0.009353 0.358443 -0.048231
0.011648 0.373049 -0.055192
0.015173 0.391249 -0.065151
0.020050 0.412399 -0.078105
0.026545 0.436199 -0.094343
0.034894 0.462027 -0.114018
0.045392 0.489357 -0.137375
0.058441 0.517822 -0.164821
0.074307 0.546720 -0.196450
0.093374 0.575615 -0.232585
0.116016 0.604063 -0.273511
0.142548 0.631603 -0.319428
0.173279 0.657833 -0.370549
0.208458 0.682359 -0.427039
0.248309 0.704796 -0.489074
0.292841 0.724658 -0.556573
0.341939 0.741444 -0.629366
0.395273 0.754627 -0.707071
0.452249 0.763684 -0.789045
0.511966 0.768153 -0.874317
0.573251 0.767705 -0.961622
0.635255 0.762173 -1.050232
0.696167 0.751688 -1.138020
0.755796 0.736327 -1.225210
0.811931 0.716884 -1.308916
0.865334 0.693368 -1.390640
0.915222 0.666312 -1.469460
0.960511 0.636673 -1.543777
1.001398 0.604758 -1.613899
1.038542 0.570278 -1.680959
1.070878 0.534508 -1.742891
1.099171 0.496991 -1.800854
1.123381 0.458074 -1.854455
1.143587 0.418122 -1.903379
1.159760 0.378043 -1.946831
1.172600 0.337303 -1.985698
1.182224 0.296935 -2.019291
1.189026 0.257553 -2.047464
1.193439 0.219807 -2.070089
1.195923 0.184370 -2.087039
1.196980 0.151455 -2.098383
1.196996 0.122401 -2.103791
1.196431 0.096858 -2.103412
1.195635 0.075334 -2.097311
1.194908 0.058030 -2.085761
1.194437 0.044288 -2.068711
1.194359 0.033888 -2.046607
1.194734 0.026299 -2.019722
1.195561 0.020925 -1.988285
1.196806 0.017190 -1.952442
1.198409 0.014605 -1.912229
1.200333 0.012860 -1.868107
1.202419 0.011776 -1.818901
1.204646 0.011474 -1.765762
1.206845 0.012264 -1.708103
1.208898 0.014655 -1.646828
1.210542 0.019359 -1.581523
1.211556 0.027112 -1.513500
1.211497 0.038970 -1.441636
1.210114 0.055461 -1.368447
1.206953 0.077454 -1.293737
1.201630 0.105373 -1.218264
1.193672 0.139622 -1.141803
1.182576 0.180206 -1.064065
1.168059 0.226100 -0.985669
1.149762 0.276193 -0.906306
1.127400 0.328858 -0.825707
1.100794 0.382103 -0.743642
1.069914 0.433772 -0.659973
1.035263 0.481408 -0.575417
0.997341 0.523312 -0.490281
0.957525 0.557810 -0.406282
0.917152 0.584284 -0.324785
0.877660 0.602831 -0.247299
0.840500 0.614175 -0.175428
0.806668 0.619606 -0.110206
0.776786 0.620661 -0.052267
0.751014 0.618893 -0.001705
0.729205 0.615664 0.041746
0.711084 0.612035 0.078480
0.696209 0.608702 0.109125
0.684265 0.606043 0.134115
0.674869 0.604155 0.154005
0.667820 0.602969 0.169083
0.662884 0.602311 0.179699
0.659990 0.602007 0.185965
0.659028 0.601921 0.188047
VECTORS ControlForce float
-0.000000 0.000000 0.000000
0.000180 -0.000046 0.000109
0.000338 -0.000109 0.000213
0.000452 -0.000207 0.000297
0.000513 -0.000326 0.000353
0.000507 -0.000462 0.000386
0.000438 -0.000599 0.000409
0.000331 -0.000707 0.000432
0.000215 -0.000759 0.000451
0.000111 -0.000740 0.000476
0.000022 -0.000658 0.000503
-0.000043 -0.000519 0.000532
-0.000075 -0.000338 0.000566
-0.000073 -0.000149 0.000603
-0.000011 0.000038 0.000634
0.000092 0.000176 0.000651
0.000235 0.000257 0.000648
0.000401 0.000276 0.000621
0.000556 0.000240 0.000568
0.000662 0.000155 0.000496
0.000704 0.000043 0.000420
0.000694 -0.000059 0.000345
0.000651 -0.000115 0.000276
0.000575 -0.000120 0.000221
0.000486 -0.000067 0.000179
0.000398 0.000044 0.000147
0.000324 0.000205 0.000110
0.000256 0.000388 0.000057
0.000179 0.000558 -0.000010
0.000078 0.000676 -0.000082
-0.000044 0.000733 -0.000161
-0.000188 0.000723 -0.000234
-0.000341 0.000649 -0.000286
-0.000485 0.000530 -0.000316
-0.000602 0.000381 -0.000329
-0.000673 0.000217 -0.000316
-0.000687 0.000057 -0.000297
-0.000639 -0.000076 -0.000282
-0.000539 -0.000189 -0.000262
-0.000405 -0.000279 -0.000235
-0.000260 -0.000342 -0.000213
-0.000129 -0.000378 -0.000204
-0.000030 -0.000399 -0.000189
0.000030 -0.000416 -0.000154
0.000056 -0.000429 -0.000109
0.000054 -0.000439 -0.000058
0.000032 -0.000433 -0.000018
-0.000000 -0.000416 0.000015
-0.000030 -0.000374 0.000036
-0.000050 -0.000308 0.000046
-0.000059 -0.000222 0.000049
-0.000061 -0.000132 0.000052
-0.000058 -0.000048 0.000053
-0.000061 -0.000005 0.000063
-0.000069 -0.000004 0.000075
-0.000076 -0.000025 0.000079
-0.000082 -0.000057 0.000075
-0.000084 -0.000077 0.000061
-0.000100 -0.000100 0.000053
-0.000127 -0.000111 0.000045
-0.000147 -0.000078 0.000029
-0.000155 -0.000002 0.000009
-0.000162 0.000081 -0.000005
-0.000182 0.000128 -0.000011
-0.000198 0.000139 -0.000013
-0.000195 0.000119 -0.000022
-0.000184 0.000048 -0.000020
-0.000159 -0.000044 -0.000013
-0.000126 -0.000146 -0.000018
-0.000093 -0.000240 -0.000027
-0.000081 -0.000333 -0.000024
-0.000080 -0.000394 -0.000017
-0.000094 -0.000415 0.000007
-0.000140 -0.000407 0.000048
-0.000225 -0.000382 0.000090
-0.000332 -0.000329 0.000122
-0.000446 -0.000267 0.000147
-0.000556 -0.000212 0.000157
-0.000625 -0.000147 0.000148
-0.000635 -0.000081 0.000121
-0.000576 -0.000020 0.000086
-0.000447 0.000041 0.000056
-0.000262 0.000089 0.000022
-0.000045 0.000122 -0.000002
0.000171 0.000123 -0.000026
0.000370 0.000107 -0.000048
0.000521 0.000077 -0.000049
0.000607 0.000032 -0.000032
0.000611 -0.000033 -0.000008
0.000532 -0.000109 0.000019
0.000383 -0.000171 0.000047
0.000199 -0.000165 0.000079
0.000005 -0.000079 0.000111
-0.000187 0.000041 0.000146
-0.000360 0.000183 0.000173
-0.000494 0.000346 0.000187
-0.000602 0.000487 0.000184
-0.000683 0.000590 0.000172
-0.000729 0.000654 0.000162
-0.000736 0.000639 0.000166
-0.000685 0.000551 0.000173
-0.000552 0.000423 0.000176
-0.000345 0.000232 0.000179
-0.000069 -0.000001 0.000190
0.000275 -0.000207 0.000195
0.000653 -0.000375 0.000171
0.001012 -0.000523 0.000110
0.001299 -0.000612 0.000002
0.001455 -0.000661 -0.000133
0.001447 -0.000635 -0.000283
0.001267 -0.000529 -0.000430
0.000942 -0.000355 -0.000549
0.000526 -0.000130 -0.000640
0.000087 0.000117 -0.000705
-0.000311 0.000345 -0.000748
-0.000605 0.000497 -0.000764
-0.000755 0.000541 -0.000750
-0.000766 0.000484 -0.000718
-0.000676 0.000362 -0.000682
-0.000517 0.000194 -0.000630
-0.000330 0.000018 -0.000564
-0.000158 -0.000129 -0.000492
-0.000030 -0.000226 -0.000420
0.000057 -0.000274 -0.000337
0.000090 -0.000263 -0.000256
0.000081 -0.000203 -0.000174
0.000046 -0.000109 -0.000090
-0.000000 -0.000000 -0.000000
VECTORS ControlTorque float
-0.000001 0.000001 -0.000002
-0.000001 0.000001 -0.000002
-0.000001 0.000001 -0.000002
-0.000001 0.000001 -0.000002
-0.000001 0.000001 -0.000002
-0.000001 0.000001 -0.000002
-0.000001 0.000001 -0.000002
-0.000000 0.000001 -0.000001
-0.000001 0.000002 -0.000001
-0.000000 0.000002 -0.000001
-0.000000 0.000002 -0.000000
-0.000000 0.000002 -0.000001
-0.000001 0.000003 -0.000001
-0.000000 0.000002 -0.000000
-0.000001 0.000003 -0.000001
-0.000001 0.000002 -0.000000
-0.000001 0.000002 -0.000000
-0.000001 0.000002 -0.000000
-0.000001 0.000001 -0.000000
-0.000001 0.000002 -0.000000
-0.000000 0.000001 0.000000
-0.000000 0.000000 0.000001
-0.000000 0.000000 0.000001
-0.000000 -0.000001 0.000001
-0.000000 -0.000001 0.000001
-0.000000 -0.000001 0.000001
-0.000000 -0.000002 0.000002
-0.000000 -0.000002 0.000001
0.000000 -0.000002 0.000001
0.000001 -0.000003 0.000001
0.000001 -0.000002 0.000001
0.000001 -0.000003 0.000001
0.000001 -0.000002 0.000001
0.000002 -0.000003 0.000001
0.000001 -0.000002 0.000001
0.000002 -0.000003 0.000001
0.000002 -0.000002 0.000000
0.000002 -0.000002 0.000001
0.000002 -0.000001 0.000000
0.000002 -0.000001 0.000000
0.000002 -0.000001 0.000000
0.000002 -0.000001 0.000000
0.000002 -0.000001 0.000000
0.000001 -0.000001 0.000000
0.000001 -0.000001 0.000000
0.000001 -0.000001 0.000000
0.000001 -0.000001 0.000000
0.000001 -0.000001 0.000001
0.000000 -0.000001 0.000000
0.000000 -0.000001 0.000001
0.000000 -0.000001 0.000001
0.000000 -0.000001 0.000001
0.000000 -0.000001 0.000001
0.000000 -0.000001 0.000001
0.000000 -0.000001 0.000001
0.000000 -0.000001 0.000001
0.000000 -0.000001 0.000001
0.000000 -0.000001 0.000001
0.000000 -0.000001 0.000001
0.000000 -0.000001 0.000001
-0.000000 -0.000000 0.000000
0.000000 -0.000001 0.000001
-0.000001 0.000000 0.000000
0.000001 -0.000001 0.000001
-0.000001 0.000001 -0.000001
0.000001 -0.000001 0.000001
0.000000 -0.000000 0.000000
-0.000001 0.000001 -0.000000
-0.000000 0.000001 -0.000000
0.000001 -0.000001 0.000001
-0.000001 0.000002 -0.000001
0.000000 -0.000000 0.000001
-0.000000 0.000001 0.000000
-0.000000 0.000001 0.000000
-0.000001 0.000002 -0.000001
0.000000 0.000001 0.000001
-0.000001 0.000002 -0.000000
-0.000001 0.000002 -0.000000
-0.000001 0.000002 -0.000000
-0.000001 0.000002 -0.000001
-0.000001 0.000002 -0.000000
-0.000001 0.000003 -0.000002
-0.000001 0.000002 -0.000001
-0.000001 0.000002 -0.000001
-0.000001 0.000002 -0.000002
-0.000001 0.000002 -0.000001
-0.000001 0.000002 -0.000001
-0.000000 0.000002 -0.000001
-0.000000 0.000002 -0.000001
-0.000000 0.000002 -0.000001
-0.000000 0.000002 -0.000000
-0.000000 0.000001 -0.000000
-0.000000 0.000003 -0.000000
-0.000000 0.000001 -0.000000
-0.000000 0.000003 -0.000000
-0.000000 0.000001 -0.000001
-0.000000 0.000003 -0.000001
-0.000000 -0.000000 -0.000001
-0.000000 0.000003 -0.000002
0.000000 -0.000001 -0.000002
0.000000 0.000001 -0.000002
0.000001 -0.000000 -0.000002
0.000001 0.000000 -0.000003
0.000001 0.000001 -0.000003
0.000001 -0.000001 -0.000002
0.000001 -0.000000 -0.000002
0.000001 -0.000000 -0.000001
0.000001 -0.000001 -0.000001
0.000001 -0.000000 -0.000000
-0.000000 -0.000001 0.000001
-0.000001 -0.000001 0.000001
-0.000001 -0.000002 0.000002
-0.000002 -0.000002 0.000002
-0.000002 -0.000002 0.000002
-0.000002 -0.000002 0.000002
-0.000001 -0.000002 0.000002
-0.000001 -0.000002 0.000002
-0.000001 -0.000002 0.000001
-0.000000 -0.000002 0.000001
0.000000 -0.000002 0.000001
0.000000 -0.000002 0.000001
0.000000 -0.000002 0.000001
0.000000 -0.000001 0.000001
0.000000 -0.000001 0.000001
0.000000 -0.000001 0.000001
0.000000 -0.000001 0.000001
-0.000000 -0.000001 0.000001
-0.000000 -0.000001 0.000001
VECTORS Curvature float
-57.796571 -185.167038 -4.114776
-186.742540 -596.947394 -12.075901
-408.051802 -1303.793226 -24.358656
-586.677467 -1880.958033 -30.727271
-750.246781 -2439.397887 -32.126540
-885.621004 -2972.590089 -27.501861
-989.323892 -3527.553841 -17.062285
-1011.078720 -3979.812858 -2.071841
-958.360992 -4416.742583 17.486874
-843.193958 -4926.247429 39.225469
-633.237376 -5364.012011 62.446362
-357.723649 -5829.003676 86.253015
-27.249752 -6402.508077 109.588982
339.700586 -6922.495820 130.151475
724.228348 -7447.848743 149.189763
1107.147944 -8040.005539 163.270569
1464.182200 -8565.834352 172.593593
1794.212799 -9083.781884 176.021045
2077.155985 -9487.844542 172.680561
2341.115386 -9858.012112 164.705539
2574.225784 -10109.121485 150.567272
2767.465778 -10138.422464 134.594456
2971.178981 -10106.873115 117.465893
3163.891449 -9922.555178 100.839592
3358.095725 -9624.303340 86.341434
3550.980555 -9240.885156 73.882688
3688.249717 -8675.035590 63.844350
3793.495962 -8045.544948 55.124663
3848.255672 -7370.597479 47.842169
3786.830670 -6571.904338 41.554462
3655.115431 -5773.875415 35.659827
3432.528194 -4974.206863 31.316316
3143.764524 -4210.386112 27.573604
2717.687632 -3409.051281 25.881553
2245.064940 -2676.980184 24.065137
1732.246789 -2023.743211 24.000345
1164.647844 -1411.685693 23.630847
620.968254 -912.966897 23.708004
62.421136 -461.164491 23.438350
-463.356176 -85.267904 22.942049
-960.626496 253.496447 22.171397
-1404.142994 553.014135 21.321977
-1831.095628 849.560137 20.479533
-2200.963652 1135.435958 20.068091
-2517.450925 1422.703949 19.871793
-2805.364782 1726.413066 20.188816
-3008.140940 2014.030478 20.630474
-3199.749954 2330.936467 20.672921
-3341.347050 2645.339351 20.338083
-3420.260639 2941.662859 18.542463
-3491.567782 3255.033936 15.206348
-3534.730274 3560.765856 10.056547
-3559.498080 3857.536577 2.980948
-3575.340327 4144.979708 -5.733521
-3594.340070 4431.833656 -15.756239
-3611.821551 4709.662736 -26.318872
-3618.829941 4969.005836 -36.928042
-3622.367041 5221.042496 -46.798823
-3615.838912 5459.252436 -55.312276
-3599.423046 5686.185815 -61.910311
-3549.348929 5857.407792 -66.334110
-3528.859094 6078.015973 -68.136468
-3464.276091 6190.756914 -67.850261
-3445.924660 6368.066371 -64.091550
-3392.770814 6411.097338 -59.683739
-3328.279372 6402.786314 -50.814934
-3416.344099 6628.365916 -41.316978
-3376.041948 6577.661231 -30.765456
-3262.179746 6380.701358 -18.028986
-3282.802084 6473.604323 -2.850130
-3206.356169 6405.428160 9.085319
-3034.324599 6231.428621 25.389554
-2921.833658 6249.801336 39.138635
-2719.803015 6186.494994 53.372762
-2406.817384 5942.937278 65.422923
-2081.171112 5763.300320 78.888998
-1759.421838 5647.893384 87.940550
-1348.496867 5321.252829 95.820208
-928.977928 4975.792969 100.234860
-490.914068 4523.140732 100.575993
-43.661352 4105.225081 96.246227
398.041665 3530.801382 85.277931
842.161026 2889.780439 68.331400
1299.462975 2316.941263 44.002726
1679.398347 1622.992978 13.043533
2085.086266 1000.586840 -24.076641
2513.400517 441.005705 -65.245159
2880.873414 -82.862089 -108.638755
3261.378262 -528.773548 -152.181281
3636.312869 -902.505885 -193.692429
4059.970651 -1225.260620 -231.260907
4386.316745 -1462.997568 -263.553602
4859.197140 -1720.921358 -289.310778
5327.651056 -1969.295401 -307.543974
5709.449229 -2210.965826 -317.394762
6074.914758 -2488.722117 -318.518971
6405.707587 -2831.326635 -310.356723
6617.415152 -3203.579850 -293.885252
6877.906346 -3727.958881 -269.029773
7025.933550 -4308.526972 -240.695889
6870.611710 -4846.703180 -209.300881
6744.992711 -5503.848199 -180.502304
6499.289984 -6167.670657 -156.342625
6329.921458 -6968.465135 -140.377577
6063.843353 -7679.498527 -137.266716
5719.377967 -8225.177959 -145.323634
5420.026610 -8679.099244 -165.877445
5142.871209 -8947.561281 -196.943825
4935.407754 -9056.764954 -235.506507
4745.310070 -8889.747867 -279.982014
4615.266016 -8526.736557 -323.321761
4519.167947 -7977.430622 -365.160473
4404.535737 -7218.284808 -398.627891
4318.531416 -6433.775021 -422.789350
4193.369736 -5609.097430 -435.756676
4012.541036 -4805.378819 -437.251505
3770.415987 -4074.092756 -428.295479
3458.876484 -3428.263115 -410.194584
3099.446688 -2886.338557 -384.583261
2695.156169 -2426.939886 -352.909522
2279.781222 -2044.919382 -316.598713
1867.260663 -1713.473988 -276.627015
1476.934387 -1414.927597 -234.003438
1120.595818 -1133.445406 -189.368611
797.412123 -853.021635 -142.960719
516.326290 -579.630830 -96.962047
227.901101 -263.785189 -44.451194
71.870973 -84.601338 -13.859915
VECTORS LocalRotation float
-0.046351 0.626401 -0.000264
-0.047461 0.622852 -0.000338
-0.050143 0.614280 -0.000502
-0.054628 0.599921 -0.000750
-0.060693 0.580321 -0.001036
-0.068124 0.555737 -0.001306
-0.076618 0.526292 -0.001508
-0.085624 0.492491 -0.001594
-0.094572 0.454343 -0.001524
-0.102717 0.412101 -0.001268
-0.109394 0.365564 -0.000808
-0.113891 0.314769 -0.000133
-0.115636 0.259328 0.000754
-0.114226 0.199184 0.001836
-0.109401 0.134011 0.003103
-0.101114 0.063931 0.004517
-0.089474 -0.011240 0.006038
-0.074720 -0.091157 0.007616
-0.057194 -0.175233 0.009195
-0.037157 -0.262968 0.010725
-0.014946 -0.353193 0.012149
0.009244 -0.444884 0.013441
0.035260 -0.536665 0.014583
0.063041 -0.627364 0.015572
0.092596 -0.715943 0.016420
0.123829 -0.801225 0.017144
0.156544 -0.882188 0.017767
0.190433 -0.957925 0.018306
0.224997 -1.027654 0.018771
0.259565 -1.090778 0.019176
0.293366 -1.146853 0.019527
0.325501 -1.195584 0.019831
0.355306 -1.237209 0.020097
0.381718 -1.271544 0.020338
0.404288 -1.299222 0.020566
0.422194 -1.320384 0.020782
0.435376 -1.336017 0.020999
0.443436 -1.346511 0.021212
0.446540 -1.352752 0.021426
0.444730 -1.355219 0.021636
0.438291 -1.354458 0.021840
0.427577 -1.350804 0.022037
0.412875 -1.344430 0.022227
0.394673 -1.335470 0.022410
0.373278 -1.323870 0.022591
0.349229 -1.309642 0.022772
0.322915 -1.292712 0.022957
0.294755 -1.273002 0.023144
0.265190 -1.250510 0.023330
0.234551 -1.225193 0.023506
0.203227 -1.197110 0.023659
0.171419 -1.166255 0.023773
0.139305 -1.132674 0.023832
0.107005 -1.096446 0.023820
0.074535 -1.057603 0.023722
0.041924 -1.016234 0.023532
0.009187 -0.972413 0.023245
-0.023605 -0.926268 0.022866
-0.056382 -0.877903 0.022404
-0.089049 -0.827442 0.021873
-0.121425 -0.775163 0.021292
-0.153531 -0.721026 0.020682
-0.185109 -0.665625 0.020068
-0.216497 -0.608580 0.019469
-0.247284 -0.551050 0.018912
-0.277987 -0.492513 0.018407
-0.308470 -0.433617 0.017991
-0.338988 -0.374283 0.017667
-0.369137 -0.315430 0.017445
-0.399003 -0.256773 0.017350
-0.428184 -0.198857 0.017378
-0.456637 -0.141243 0.017535
-0.483599 -0.084742 0.017827
-0.509033 -0.028676 0.018244
-0.532107 0.025916 0.018779
-0.552560 0.079265 0.019437
-0.569871 0.130697 0.020189
-0.583908 0.180240 0.021019
-0.594219 0.226859 0.021906
-0.600661 0.269957 0.022817
-0.603091 0.309175 0.023712
-0.601497 0.343515 0.024528
-0.595842 0.372793 0.025229
-0.586184 0.396273 0.025735
-0.572740 0.414055 0.025993
-0.555534 0.426046 0.025942
-0.534759 0.432559 0.025539
-0.510375 0.434178 0.024753
-0.482594 0.431412 0.023573
-0.451394 0.424938 0.022009
-0.416595 0.415317 0.020087
-0.378442 0.403174 0.017852
-0.336243 0.388641 0.015329
-0.290443 0.372050 0.012645
-0.240394 0.353094 0.009811
-0.187196 0.331879 0.006941
-0.130439 0.307685 0.004081
-0.071525 0.280384 0.001347
-0.010014 0.248791 -0.001218
0.052299 0.212773 -0.003503
0.115224 0.171317 -0.005541
0.176890 0.124439 -0.007306
0.237147 0.071338 -0.008839
0.295394 0.011697 -0.010186
0.351287 -0.054362 -0.011438
0.404567 -0.126278 -0.012716
0.455006 -0.202820 -0.014125
0.502883 -0.282713 -0.015769
0.548568 -0.364328 -0.017730
0.592367 -0.445524 -0.020062
0.634810 -0.524494 -0.022797
0.676088 -0.599076 -0.025909
0.716516 -0.667919 -0.029369
0.756051 -0.729793 -0.033092
0.794581 -0.784307 -0.036978
0.831741 -0.831467 -0.040931
0.866969 -0.871659 -0.044849
0.899701 -0.905627 -0.048645
0.929395 -0.934218 -0.052244
0.955620 -0.958264 -0.055582
0.978161 -0.978526 -0.058615
0.996928 -0.995534 -0.061300
1.012087 -1.009714 -0.063614
1.023837 -1.021242 -0.065529
1.032529 -1.030245 -0.067036
1.038464 -1.036717 -0.068119
1.041841 -1.040544 -0.068761
1.043196 -1.042118 -0.069025
VECTORS q1 float
-0.393114 -0.723509 -0.567447
-0.390478 -0.724020 -0.568614
-0.382579 -0.725494 -0.572094
-0.369565 -0.727739 -0.577770
-0.351716 -0.730453 -0.585435
-0.329181 -0.733291 -0.594915
-0.302091 -0.735858 -0.606015
-0.270516 -0.737732 -0.618525
-0.235047 -0.738472 -0.631990
-0.195222 -0.737678 -0.646312
-0.151168 -0.734924 -0.661087
-0.102910 -0.729799 -0.675872
-0.050069 -0.721851 -0.690235
0.007675 -0.710581 -0.703574
0.069854 -0.695620 -0.715006
0.136797 -0.676441 -0.723681
0.207947 -0.652707 -0.728514
0.282595 -0.624168 -0.728392
0.359664 -0.590765 -0.722245
0.437532 -0.552785 -0.709221
0.514881 -0.510542 -0.688654
0.589417 -0.465076 -0.660524
0.659494 -0.417411 -0.625169
0.723777 -0.368672 -0.583291
0.781028 -0.320238 -0.536137
0.830748 -0.273218 -0.484984
0.872593 -0.228840 -0.431525