# vtk DataFile Version 2.0
VTK example
ASCII
DATASET UNSTRUCTURED_GRID
POINTS  128  float
-0.000002 -0.000000 -0.000028
-0.000001 0.000001 -0.000019
-0.000001 0.000003 -0.000011
-0.000000 0.000006 -0.000002
0.000001 0.000008 0.000007
0.000002 0.000011 0.000015
0.000003 0.000014 0.000024
0.000004 0.000018 0.000032
0.000006 0.000022 0.000040
0.000008 0.000027 0.000047
0.000010 0.000033 0.000054
0.000013 0.000039 0.000060
0.000016 0.000045 0.000066
0.000020 0.000051 0.000071
0.000024 0.000058 0.000075
0.000029 0.000065 0.000078
0.000034 0.000072 0.000081
0.000039 0.000079 0.000083
0.000045 0.000086 0.000084
0.000051 0.000093 0.000084
0.000057 0.000100 0.000084
0.000064 0.000106 0.000083
0.000070 0.000112 0.000082
0.000077 0.000117 0.000080
0.000084 0.000122 0.000077
0.000091 0.000127 0.000074
0.000099 0.000132 0.000071
0.000106 0.000136 0.000068
0.000113 0.000140 0.000064
0.000120 0.000143 0.000060
0.000128 0.000147 0.000056
0.000135 0.000150 0.000052
0.000143 0.000153 0.000047
0.000150 0.000156 0.000043
0.000158 0.000158 0.000039
0.000165 0.000161 0.000034
0.000173 0.000163 0.000030
0.000180 0.000165 0.000026
0.000188 0.000167 0.000022
0.000196 0.000169 0.000017
0.000204 0.000170 0.000013
0.000212 0.000172 0.000010
0.000220 0.000173 0.000006
0.000228 0.000175 0.000002
0.000237 0.000176 -0.000001
0.000245 0.000177 -0.000004
0.000254 0.000179 -0.000007
0.000262 0.000180 -0.000010
0.000271 0.000181 -0.000012
0.000280 0.000182 -0.000014
0.000288 0.000184 -0.000016
0.000297 0.000185 -0.000017
0.000306 0.000186 -0.000018
0.000315 0.000188 -0.000018
0.000324 0.000189 -0.000018
0.000333 0.000191 -0.000018
0.000342 0.000193 -0.000017
0.000350 0.000195 -0.000016
0.000359 0.000197 -0.000014
0.000367 0.000199 -0.000011
0.000376 0.000202 -0.000008
0.000383 0.000205 -0.000005
0.000391 0.000208 -0.000001
0.000398 0.000211 0.000004
0.000405 0.000214 0.000009
0.000411 0.000218 0.000015
0.000417 0.000221 0.000021
0.000422 0.000225 0.000027
0.000426 0.000229 0.000034
0.000430 0.000233 0.000041
0.000434 0.000237 0.000048
0.000436 0.000241 0.000056
0.000439 0.000244 0.000064
0.000440 0.000248 0.000072
0.000442 0.000252 0.000080
0.000442 0.000255 0.000089
0.000443 0.000259 0.000097
0.000442 0.000262 0.000105
0.000442 0.000265 0.000114
0.000441 0.000269 0.000122
0.000440 0.000272 0.000131
0.000438 0.000275 0.000139
0.000437 0.000278 0.000148
0.000435 0.000280 0.000156
0.000432 0.000283 0.000164
0.000430 0.000286 0.000172
0.000427 0.000289 0.000181
0.000424 0.000292 0.000189
0.000421 0.000295 0.000197
0.000419 0.000297 0.000205
0.000416 0.000300 0.000213
0.000413 0.000303 0.000221
0.000410 0.000306 0.000229
0.000407 0.000309 0.000237
0.000404 0.000312 0.000245
0.000401 0.000315 0.000253
0.000399 0.000318 0.000262
0.000397 0.000321 0.000270
0.000395 0.000324 0.000278
0.000394 0.000328 0.000286
0.000393 0.000331 0.000295
0.000393 0.000334 0.000303
0.000393 0.000338 0.000312
0.000394 0.000341 0.000320
0.000395 0.000345 0.000328
0.000397 0.000348 0.000336
0.000400 0.000352 0.000344
0.000404 0.000355 0.000352
0.000408 0.000358 0.000359
0.000414 0.000362 0.000365
0.000419 0.000365 0.000371
0.000426 0.000368 0.000377
0.000433 0.000371 0.000382
0.000440 0.000374 0.000386
0.000448 0.000377 0.000389
0.000456 0.000380 0.000392
0.000465 0.000382 0.000394
0.000473 0.000385 0.000396
0.000482 0.000387 0.000397
0.000491 0.000389 0.000397
0.000500 0.000391 0.000397
0.000508 0.000393 0.000396
0.000517 0.000395 0.000395
0.000526 0.000397 0.000394
0.000535 0.000398 0.000392
0.000544 0.000400 0.000390
0.000552 0.000401 0.000388
0.000561 0.000403 0.000386
CELLS  127 381
2 0 1 
2 1 2 
2 2 3 
2 3 4 
2 4 5 
2 5 6 
2 6 7 
2 7 8 
2 8 9 
2 9 10 
2 10 11 
2 11 12 
2 12 13 
2 13 14 
2 14 15 
2 15 16 
2 16 17 
2 17 18 
2 18 19 
2 19 20 
2 20 21 
2 21 22 
2 22 23 
2 23 24 
2 24 25 
2 25 26 
2 26 27 
2 27 28 
2 28 29 
2 29 30 
2 30 31 
2 31 32 
2 32 33 
2 33 34 
2 34 35 
2 35 36 
2 36 37 
2 37 38 
2 38 39 
2 39 40 
2 40 41 
2 41 42 
2 42 43 
2 43 44 
2 44 45 
2 45 46 
2 46 47 
2 47 48 
2 48 49 
2 49 50 
2 50 51 
2 51 52 
2 52 53 
2 53 54 
2 54 55 
2 55 56 
2 56 57 
2 57 58 
2 58 59 
2 59 60 
2 60 61 
2 61 62 
2 62 63 
2 63 64 
2 64 65 
2 65 66 
2 66 67 
2 67 68 
2 68 69 
2 69 70 
2 70 71 
2 71 72 
2 72 73 
2 73 74 
2 74 75 
2 75 76 
2 76 77 
2 77 78 
2 78 79 
2 79 80 
2 80 81 
2 81 82 
2 82 83 
2 83 84 
2 84 85 
2 85 86 
2 86 87 
2 87 88 
2 88 89 
2 89 90 
2 90 91 
2 91 92 
2 92 93 
2 93 94 
2 94 95 
2 95 96 
2 96 97 
2 97 98 
2 98 99 
2 99 100 
2 100 101 
2 101 102 
2 102 103 
2 103 104 
2 104 105 
2 105 106 
2 106 107 
2 107 108 
2 108 109 
2 109 110 
2 110 111 
2 111 112 
2 112 113 
2 113 114 
2 114 115 
2 115 116 
2 116 117 
2 117 118 
2 118 119 
2 119 120 
2 120 121 
2 121 122 
2 122 123 
2 123 124 
2 124 125 
2 125 126 
2 126 127 
CELL_TYPES  127
3
3
3
3
3
3
3
3
3
3
3
3
3
3
3
3
3
3
3
3
3
3
3
3
3
3
3
3
3
3
3
3
3
3
3
3
3
3
3
3
3
3
3
3
3
3
3
3
3
3
3
3
3
3
3
3
3
3
3
3
3
3
3
3
3
3
3
3
3
3
3
3
3
3
3
3
3
3
3
3
3
3
3
3
3
3
3
3
3
3
3
3
3
3
3
3
3
3
3
3
3
3
3
3
3
3
3
3
3
3
3
3
3
3
3
3
3
3
3
3
3
3
3
3
3
3
3
POINT_DATA  128
VECTORS Position float
-0.000002 -0.000000 -0.000028
-0.000001 0.000001 -0.000019
-0.000001 0.000003 -0.000011
-0.000000 0.000006 -0.000002
0.000001 0.000008 0.000007
0.000002 0.000011 0.000015
0.000003 0.000014 0.000024
0.000004 0.000018 0.000032
0.000006 0.000022 0.000040
0.000008 0.000027 0.000047
0.000010 0.000033 0.000054
0.000013 0.000039 0.000060
0.000016 0.000045 0.000066
0.000020 0.000051 0.000071
0.000024 0.000058 0.000075
0.000029 0.000065 0.000078
0.000034 0.000072 0.000081
0.000039 0.000079 0.000083
0.000045 0.000086 0.000084
0.000051 0.000093 0.000084
0.000057 0.000100 0.000084
0.000064 0.000106 0.000083
0.000070 0.000112 0.000082
0.000077 0.000117 0.000080
0.000084 0.000122 0.000077
0.000091 0.000127 0.000074
0.000099 0.000132 0.000071
0.000106 0.000136 0.000068
0.000113 0.000140 0.000064
0.000120 0.000143 0.000060
0.000128 0.000147 0.000056
0.000135 0.000150 0.000052
0.000143 0.000153 0.000047
0.000150 0.000156 0.000043
0.000158 0.000158 0.000039
0.000165 0.000161 0.000034
0.000173 0.000163 0.000030
0.000180 0.000165 0.000026
0.000188 0.000167 0.000022
0.000196 0.000169 0.000017
0.000204 0.000170 0.000013
0.000212 0.000172 0.000010
0.000220 0.000173 0.000006
0.000228 0.000175 0.000002
0.000237 0.000176 -0.000001
0.000245 0.000177 -0.000004
0.000254 0.000179 -0.000007
0.000262 0.000180 -0.000010
0.000271 0.000181 -0.000012
0.000280 0.000182 -0.000014
0.000288 0.000184 -0.000016
0.000297 0.000185 -0.000017
0.000306 0.000186 -0.000018
0.000315 0.000188 -0.000018
0.000324 0.000189 -0.000018
0.000333 0.000191 -0.000018
0.000342 0.000193 -0.000017
0.000350 0.000195 -0.000016
0.000359 0.000197 -0.000014
0.000367 0.000199 -0.000011
0.000376 0.000202 -0.000008
0.000383 0.000205 -0.000005
0.000391 0.000208 -0.000001
0.000398 0.000211 0.000004
0.000405 0.000214 0.000009
0.000411 0.000218 0.000015
0.000417 0.000221 0.000021
0.000422 0.000225 0.000027
0.000426 0.000229 0.000034
0.000430 0.000233 0.000041
0.000434 0.000237 0.000048
0.000436 0.000241 0.000056
0.000439 0.000244 0.000064
0.000440 0.000248 0.000072
0.000442 0.000252 0.000080
0.000442 0.000255 0.000089
0.000443 0.000259 0.000097
0.000442 0.000262 0.000105
0.000442 0.000265 0.000114
0.000441 0.000269 0.000122
0.000440 0.000272 0.000131
0.000438 0.000275 0.000139
0.000437 0.000278 0.000148
0.000435 0.000280 0.000156
0.000432 0.000283 0.000164
0.000430 0.000286 0.000172
0.000427 0.000289 0.000181
0.000424 0.000292 0.000189
0.000421 0.000295 0.000197
0.000419 0.000297 0.000205
0.000416 0.000300 0.000213
0.000413 0.000303 0.000221
0.000410 0.000306 0.000229
0.000407 0.000309 0.000237
0.000404 0.000312 0.000245
0.000401 0.000315 0.000253
0.000399 0.000318 0.000262
0.000397 0.000321 0.000270
0.000395 0.000324 0.000278
0.000394 0.000328 0.000286
0.000393 0.000331 0.000295
0.000393 0.000334 0.000303
0.000393 0.000338 0.000312
0.000394 0.000341 0.000320
0.000395 0.000345 0.000328
0.000397 0.000348 0.000336
0.000400 0.000352 0.000344
0.000404 0.000355 0.000352
0.000408 0.000358 0.000359
0.000414 0.000362 0.000365
0.000419 0.000365 0.000371
0.000426 0.000368 0.000377
0.000433 0.000371 0.000382
0.000440 0.000374 0.000386
0.000448 0.000377 0.000389
0.000456 0.000380 0.000392
0.000465 0.000382 0.000394
0.000473 0.000385 0.000396
0.000482 0.000387 0.000397
0.000491 0.000389 0.000397
0.000500 0.000391 0.000397
0.000508 0.000393 0.000396
0.000517 0.000395 0.000395
0.000526 0.000397 0.000394
0.000535 0.000398 0.000392
0.000544 0.000400 0.000390
0.000552 0.000401 0.000388
0.000561 0.000403 0.000386
VECTORS Rotation float
-0.035285 0.209232 -0.053771
-0.034684 0.215077 -0.056333
-0.032781 0.232517 -0.064099
-0.029294 0.260981 -0.077185
-0.023757 0.299454 -0.095779
-0.015439 0.347009 -0.120438
-0.003311 0.402519 -0.152021
0.014030 0.464649 -0.191775
0.038043 0.530668 -0.240570
0.071176 0.599408 -0.300966
0.115881 0.668076 -0.374993
0.174749 0.733600 -0.464815
0.250501 0.793000 -0.572935
0.344746 0.842791 -0.700652
0.455327 0.878982 -0.845038
0.577931 0.899056 -1.001561
0.703884 0.901660 -1.160976
0.823847 0.887564 -1.313505
0.930598 0.859306 -1.451552
1.020409 0.820520 -1.571014
1.093521 0.774700 -1.672075
1.151311 0.725418 -1.755802
1.196466 0.675307 -1.824853
1.231652 0.626238 -1.881947
1.259025 0.579644 -1.929228
1.280436 0.536180 -1.968659
1.297182 0.496300 -2.001525
1.310225 0.460132 -2.028724
1.320329 0.427332 -2.051009
1.327987 0.397621 -2.068725
1.333578 0.370628 -2.082094
1.337438 0.345764 -2.091375
1.339824 0.322648 -2.096737
1.340979 0.300813 -2.098410
1.341127 0.280336 -2.096634
1.340448 0.260679 -2.091667
1.339158 0.242219 -2.083911
1.337355 0.224662 -2.073498
1.335196 0.208375 -2.060802
1.332721 0.193322 -2.045836
1.330009 0.179778 -2.028797
1.327089 0.167902 -2.009736
1.323974 0.157822 -1.988655
1.320621 0.149531 -1.965297
1.317057 0.143171 -1.939848
1.313221 0.138701 -1.912020
1.309096 0.136129 -1.881884
1.304636 0.135419 -1.849381
1.299759 0.136524 -1.814268
1.294431 0.139413 -1.776730
1.288567 0.144088 -1.736659
1.282078 0.150590 -1.693997
1.274870 0.158981 -1.648773
1.266833 0.169350 -1.600979
1.257838 0.181788 -1.550609
1.247722 0.196384 -1.497557
1.236312 0.213144 -1.441790
1.223394 0.232009 -1.383150
1.208720 0.252804 -1.321430
1.192022 0.275211 -1.256410
1.173044 0.298748 -1.187932
1.151579 0.322761 -1.115976
1.127320 0.346635 -1.040131
1.100499 0.369283 -0.961422
1.070822 0.390163 -0.879164
1.039385 0.407995 -0.796062
1.005901 0.422578 -0.711006
0.971206 0.433309 -0.625526
0.936693 0.439826 -0.542239
0.902929 0.442292 -0.461752
0.869929 0.440999 -0.383466
0.839183 0.436449 -0.310302
0.810377 0.429171 -0.241153
0.783793 0.419808 -0.176429
0.759529 0.409021 -0.116259
0.737810 0.397589 -0.061243
0.717958 0.385778 -0.009763
0.700053 0.374176 0.037826
0.683900 0.363136 0.081830
0.669317 0.352926 0.122518
0.656152 0.343745 0.160069
0.644149 0.335631 0.195005
0.633494 0.328886 0.226477
0.623877 0.323405 0.255216
0.615369 0.319277 0.280757
0.608029 0.316529 0.302679
0.601701 0.315041 0.321350
0.596476 0.314755 0.336322
0.592394 0.315568 0.347374
0.589517 0.317374 0.354266
0.587923 0.320073 0.356741
0.587713 0.323576 0.354530
0.588974 0.327756 0.347405
0.591926 0.332645 0.334895
0.596602 0.338045 0.316996
0.603258 0.343934 0.293200
0.611961 0.350136 0.263509
0.623054 0.356611 0.227262
0.636562 0.363146 0.184644
0.653116 0.369749 0.134313
0.672392 0.376072 0.077391
0.694747 0.381986 0.013220
0.720146 0.387217 -0.057889
0.748745 0.391486 -0.136191
0.780535 0.394427 -0.221646
0.814872 0.395618 -0.312760
0.851283 0.394717 -0.408649
0.889113 0.391453 -0.508118
0.927617 0.385686 -0.609855
0.966064 0.377419 -0.712626
1.003531 0.366881 -0.814613
1.039563 0.354343 -0.915145
1.073440 0.340301 -1.012591
1.104886 0.325190 -1.106346
1.133726 0.309421 -1.195914
1.159807 0.293401 -1.280641
1.183123 0.277439 -1.360172
1.203691 0.261811 -1.434078
1.221598 0.246732 -1.502040
1.236963 0.232396 -1.563763
1.249905 0.219020 -1.618858
1.260618 0.206773 -1.667197
1.269252 0.195902 -1.708420
1.276017 0.186585 -1.742492
1.281059 0.179071 -1.769116
1.284551 0.173520 -1.788288
1.286587 0.170135 -1.799777
1.287259 0.168991 -1.803625
VECTORS ControlForce float
0.000000 0.000000 0.000000
-0.000022 -0.000369 0.000156
-0.000029 -0.000698 0.000290
-0.000014 -0.000964 0.000392
0.000026 -0.001152 0.000446
0.000082 -0.001257 0.000461
0.000134 -0.001291 0.000450
0.000158 -0.001281 0.000430
0.000136 -0.001248 0.000403
0.000067 -0.001192 0.000366
-0.000045 -0.001121 0.000321
-0.000182 -0.001023 0.000260
-0.000339 -0.000921 0.000199
-0.000497 -0.000805 0.000134
-0.000633 -0.000652 0.000059
-0.000726 -0.000440 -0.000021
-0.000779 -0.000182 -0.000092
-0.000807 0.000078 -0.000147
-0.000805 0.000311 -0.000187
-0.000761 0.000500 -0.000212
-0.000685 0.000595 -0.000223
-0.000560 0.000618 -0.000223
-0.000391 0.000576 -0.000211
-0.000190 0.000493 -0.000183
0.000006 0.000363 -0.000142
0.000173 0.000205 -0.000095
0.000302 0.000051 -0.000048
0.000385 -0.000081 -0.000012
0.000428 -0.000163 0.000014
0.000441 -0.000173 0.000032
0.000425 -0.000119 0.000042
0.000371 -0.000043 0.000044
0.000292 0.000052 0.000047
0.000201 0.000156 0.000055
0.000101 0.000231 0.000054
0.000004 0.000258 0.000048
-0.000072 0.000263 0.000039
-0.000128 0.000233 0.000032
-0.000162 0.000176 0.000024
-0.000167 0.000124 0.000027
-0.000153 0.000073 0.000030
-0.000130 0.000020 0.000027
-0.000095 -0.000004 0.000027
-0.000061 -0.000021 0.000032
-0.000031 -0.000035 0.000038
-0.000006 -0.000033 0.000049
0.000007 -0.000025 0.000060
0.000009 0.000006 0.000071
-0.000011 0.000032 0.000080
-0.000047 0.000047 0.000086
-0.000088 0.000066 0.000090
-0.000127 0.000074 0.000095
-0.000151 0.000091 0.000103
-0.000164 0.000085 0.000112
-0.000164 0.000049 0.000124
-0.000140 -0.000000 0.000140
-0.000095 -0.000069 0.000160
-0.000025 -0.000126 0.000182
0.000060 -0.000175 0.000203
0.000159 -0.000194 0.000219
0.000267 -0.000176 0.000223
0.000373 -0.000132 0.000213
0.000468 -0.000054 0.000183
0.000536 0.000043 0.000129
0.000562 0.000131 0.000058
0.000536 0.000206 -0.000029
0.000459 0.000237 -0.000100
0.000349 0.000247 -0.000157
0.000215 0.000243 -0.000213
0.000070 0.000222 -0.000260
-0.000069 0.000192 -0.000285
-0.000191 0.000152 -0.000292
-0.000286 0.000104 -0.000266
-0.000345 0.000059 -0.000215
-0.000366 0.000023 -0.000149
-0.000347 -0.000008 -0.000077
-0.000292 -0.000027 0.000004
-0.000215 -0.000025 0.000069
-0.000129 -0.000006 0.000104
-0.000045 0.000019 0.000111
0.000030 0.000039 0.000100
0.000091 0.000049 0.000082
0.000138 0.000049 0.000047
0.000179 0.000038 0.000017
0.000207 0.000026 -0.000026
0.000237 0.000014 -0.000070
0.000261 0.000008 -0.000104
0.000276 0.000010 -0.000131
0.000273 0.000021 -0.000156
0.000260 0.000037 -0.000172
0.000241 0.000053 -0.000170
0.000218 0.000068 -0.000155
0.000193 0.000081 -0.000129
0.000171 0.000093 -0.000080
0.000152 0.000108 -0.000019
0.000127 0.000131 0.000037
0.000105 0.000162 0.000095
0.000067 0.000201 0.000142
0.000019 0.000236 0.000192
-0.000037 0.000252 0.000254
-0.000097 0.000234 0.000316
-0.000164 0.000181 0.000360
-0.000236 0.000099 0.000377
-0.000310 -0.000000 0.000368
-0.000376 -0.000115 0.000350
-0.000426 -0.000241 0.000321
-0.000458 -0.000334 0.000259
-0.000458 -0.000375 0.000171
-0.000424 -0.000378 0.000084
-0.000360 -0.000352 0.000010
-0.000269 -0.000289 -0.000056
-0.000168 -0.000234 -0.000097
-0.000069 -0.000204 -0.000119
0.000020 -0.000191 -0.000129
0.000088 -0.000203 -0.000127
0.000131 -0.000228 -0.000119
0.000146 -0.000259 -0.000109
0.000134 -0.000277 -0.000101
0.000098 -0.000288 -0.000094
0.000052 -0.000267 -0.000088
-0.000002 -0.000241 -0.000084
-0.000051 -0.000202 -0.000078
-0.000098 -0.000181 -0.000072
-0.000127 -0.000155 -0.000063
-0.000128 -0.000110 -0.000049
-0.000106 -0.000074 -0.000034
-0.000061 -0.000042 -0.000019
0.000000 0.000000 -0.000000
VECTORS ControlTorque float
0.000005 -0.000002 0.000000
0.000005 -0.000002 0.000000
0.000005 -0.000002 0.000000
0.000004 -0.000002 0.000000
0.000004 -0.000002 0.000000
0.000003 -0.000002 0.000000
0.000004 -0.000003 0.000001
0.000001 -0.000002 0.000001
0.000003 -0.000003 0.000001
0.000001 -0.000002 0.000001
0.000000 -0.000002 0.000001
0.000000 -0.000002 0.000002
0.000000 -0.000002 0.000002
-0.000001 -0.000000 0.000002
-0.000001 -0.000001 0.000002
-0.000002 0.000000 0.000002
-0.000002 0.000001 0.000001
-0.000002 0.000001 0.000001
-0.000002 0.000002 0.000001
-0.000001 0.000001 0.000001
-0.000002 0.000002 -0.000000
-0.000002 0.000002 -0.000001
-0.000002 0.000002 -0.000001
-0.000002 0.000002 -0.000001
-0.000001 0.000001 -0.000001
-0.000001 0.000001 -0.000001
-0.000001 0.000001 -0.000001
-0.000001 0.000001 -0.000001
-0.000001 0.000001 -0.000001
-0.000001 0.000001 -0.000001
-0.000001 0.000001 -0.000000
-0.000001 0.000001 -0.000000
-0.000001 0.000001 -0.000000
-0.000001 0.000001 -0.000001
-0.000000 0.000001 0.000000
-0.000001 0.000001 -0.000001
-0.000000 0.000001 0.000000
-0.000001 0.000001 -0.000001
-0.000000 0.000001 -0.000000
-0.000000 0.000001 -0.000001
-0.000000 0.000001 -0.000001
-0.000000 0.000001 -0.000001
-0.000000 0.000001 -0.000001
-0.000000 0.000001 -0.000001
-0.000000 0.000001 -0.000001
-0.000000 0.000001 -0.000001
-0.000000 0.000001 -0.000001
-0.000000 0.000001 -0.000001
-0.000000 0.000001 -0.000001
-0.000000 0.000001 -0.000001
-0.000000 0.000001 -0.000001
-0.000000 0.000001 -0.000001
-0.000000 0.000001 -0.000001
-0.000000 0.000001 -0.000001
-0.000000 0.000001 -0.000001
-0.000000 0.000001 -0.000001
-0.000000 0.000001 -0.000001
0.000000 0.000001 -0.000001
0.000000 0.000001 -0.000001
0.000000 0.000001 -0.000001
0.000000 0.000001 -0.000001
-0.000000 0.000002 -0.000001
0.000000 -0.000000 0.000000
-0.000000 0.000002 -0.000001
0.000000 -0.000002 0.000001
-0.000000 0.000001 -0.000000
-0.000000 0.000000 0.000000
-0.000000 -0.000002 0.000001
-0.000000 -0.000002 0.000001
-0.000001 0.000001 -0.000000
0.000000 -0.000003 0.000001
-0.000000 -0.000000 0.000000
0.000000 -0.000002 0.000001
0.000000 -0.000001 0.000000
0.000001 -0.000002 0.000001
0.000000 -0.000000 0.000000
0.000001 -0.000002 0.000001
0.000001 -0.000001 0.000000
0.000001 -0.000001 0.000000
0.000001 -0.000001 0.000001
0.000000 -0.000000 0.000000
0.000001 -0.000002 0.000001
0.000000 -0.000000 0.000000
0.000001 -0.000001 0.000001
0.000001 -0.000002 0.000001
0.000000 -0.000001 0.000000
0.000000 -0.000001 0.000001
0.000000 -0.000001 0.000001
0.000000 -0.000002 0.000001
0.000000 -0.000002 0.000001
0.000000 -0.000002 0.000001
0.000000 -0.000002 0.000001
0.000000 -0.000002 0.000001
-0.000000 -0.000002 0.000001
0.000000 -0.000002 0.000001
-0.000000 -0.000002 0.000001
0.000000 -0.000003 0.000001
-0.000000 -0.000002 0.000001
0.000000 -0.000004 0.000001
0.000000 -0.000001 0.000001
0.000000 -0.000003 0.000001
0.000000 -0.000002 0.000001
0.000000 -0.000002 0.000001
0.000001 -0.000003 0.000001
0.000001 -0.000002 0.000001
0.000001 -0.000002 0.000001
0.000001 -0.000001 0.000000
0.000001 -0.000001 0.000000
0.000001 -0.000001 0.000000
0.000000 0.000000 -0.000000
0.000000 -0.000000 -0.000000
0.000000 0.000001 -0.000001
0.000000 0.000001 -0.000001
0.000000 0.000001 -0.000001
-0.000000 0.000002 -0.000001
-0.000000 0.000002 -0.000001
-0.000000 0.000002 -0.000001
-0.000000 0.000002 -0.000001
-0.000001 0.000002 -0.000001
-0.000001 0.000003 -0.000001
-0.000001 0.000002 -0.000001
-0.000001 0.000003 -0.000001
-0.000001 0.000003 -0.000001
-0.000001 0.000003 -0.000001
-0.000001 0.000003 -0.000001
-0.000001 0.000003 -0.000001
-0.000001 0.000003 -0.000001
-0.000001 0.000003 -0.000001
VECTORS Curvature float
-364.455017 170.676908 -3.785765
-1172.795223 554.042809 -13.512015
-2553.078317 1221.647335 -28.699333
-3660.140115 1792.469015 -40.976623
-4699.867240 2378.879047 -52.643291
-5643.565161 2981.528014 -62.933379
-6553.684596 3653.592523 -73.088359
-7176.689020 4255.255022 -80.481244
-7640.991929 4870.821103 -90.741259
-8078.608524 5568.446626 -98.310155
-8219.066701 6166.423208 -105.116723
-8224.222470 6746.532396 -110.659691
-8188.351807 7374.144767 -113.046439
-7917.560161 7831.732203 -109.542137
-7497.257409 8184.993469 -106.147957
-7044.169849 8492.178437 -100.650095
-6460.474535 8629.098665 -97.761068
-5854.972773 8676.338738 -95.984599
-5208.984956 8557.757688 -94.508209
-4601.274685 8369.366932 -90.254083
-4035.813148 8065.549343 -85.801193
-3483.731174 7590.071401 -79.376472
-3023.166536 7096.328733 -73.105523
-2617.643462 6537.829983 -68.017340
-2266.780085 5962.443503 -63.768603
-1962.876843 5406.519165 -61.386330
-1665.104605 4826.564838 -60.383585
-1379.766200 4301.242997 -60.509195
-1092.605688 3841.253004 -61.922194
-781.355247 3401.845469 -64.028745
-458.257881 3040.238112 -66.463896
-127.671037 2738.624277 -69.012796
214.499859 2506.164841 -71.128913
537.916330 2265.898216 -72.505793
860.933991 2075.044102 -72.854736
1145.430171 1896.844467 -71.743127
1407.136255 1706.609420 -69.389797
1647.497594 1535.673241 -65.265381
1856.583912 1332.489354 -59.978731
2068.019149 1133.931859 -53.254727
2242.500961 897.741365 -45.676787
2401.398471 649.017968 -37.362280
2598.498818 392.643010 -28.847527
2785.099149 126.079623 -20.091525
2964.210470 -152.028941 -11.746276
3174.009899 -432.793400 -3.671163
3346.264728 -709.791685 3.769129
3563.578478 -994.782684 10.526334
3775.729600 -1278.333880 16.405824
3960.575409 -1556.135794 21.224880
4169.654190 -1850.144437 24.775926
4367.251316 -2153.382172 26.754016
4550.998722 -2468.616527 26.901626
4719.904962 -2797.788844 24.903452
4884.434810 -3148.237552 20.592887
5039.961496 -3513.934954 13.705986
5182.343338 -3884.745807 4.352520
5331.012984 -4262.975926 -7.337623
5485.394639 -4634.881041 -20.953667
5653.249585 -4992.928790 -35.789914
5793.031769 -5285.492584 -51.267159
6006.615821 -5594.668977 -65.279097
6130.777426 -5765.099899 -79.017998
6328.052050 -5940.128646 -87.504597
6386.189591 -5936.611343 -95.225978
6382.751327 -5818.718371 -95.215056
6589.116039 -5858.460429 -92.928916
6493.041526 -5598.993803 -85.895586
6226.968718 -5185.210735 -74.554820
6212.247975 -4976.031454 -61.095100
6014.406472 -4641.770744 -45.814010
5692.796640 -4227.749726 -30.507594
5533.878148 -3978.001042 -15.513172
5287.517880 -3699.140915 -2.196705
4898.036732 -3368.161876 9.702627
4578.893593 -3125.921832 18.441250
4344.610970 -2983.308342 26.032161
3988.401864 -2787.462280 31.179539
3672.789125 -2643.078283 34.942624
3332.193962 -2493.798308 37.722332
3072.148772 -2414.826239 39.759331
2738.369222 -2276.734028 42.176907
2390.202396 -2122.382719 44.348750
2117.019139 -2022.624338 47.489573
1734.121622 -1802.157254 51.324169
1399.356114 -1607.458599 56.051139
1088.909573 -1414.283182 61.894551
743.309134 -1151.092853 68.719117
407.101418 -868.166385 76.614460
68.242140 -552.494789 85.513595
-279.620231 -205.421159 95.282576
-615.855545 163.130194 105.887624
-986.816264 573.064391 116.857331
-1359.859303 997.470131 128.123977
-1737.207948 1445.473408 138.797145
-2120.766249 1901.110879 148.765566
-2537.236093 2394.703887 156.784558
-2940.686899 2868.132672 162.717016
-3443.820953 3433.122372 164.880311
-3957.686314 3985.029527 163.859072
-4392.524476 4432.520630 157.962743
-4904.583435 4922.236601 147.868037
-5398.980892 5359.392681 133.209561
-6003.050863 5868.076372 114.804266
-6537.222071 6270.370495 93.441479
-6958.075777 6533.429957 69.767087
-7352.347532 6745.707152 44.783622
-7661.999445 6858.862426 19.313525
-7930.381805 6916.232248 -5.578289
-8064.063352 6840.559217 -29.505852
-8133.010710 6699.903627 -50.801871
-8122.399447 6486.579658 -69.767274
-7969.551157 6161.656594 -84.661100
-7809.988208 5841.850303 -95.453950
-7570.022088 5479.613781 -101.889506
-7259.129865 5093.365628 -103.660985
-6892.522177 4701.886993 -101.295522
-6457.428475 4301.135520 -95.165493
-5978.343309 3908.361485 -86.076980
-5431.220657 3504.644926 -74.997239
-4848.250980 3104.965476 -62.665985
-4220.893152 2695.688629 -50.305195
-3564.348111 2278.773416 -38.417843
-2884.616913 1850.763626 -27.919393
-2177.032383 1403.643453 -18.861101
-1478.180567 957.611942 -11.620155
-671.873739 436.627097 -5.028964
-215.305420 140.300118 -1.361638
VECTORS LocalRotation float
0.100857 -0.681349 0.016300
0.093880 -0.678060 0.016221
0.077079 -0.670053 0.016031
0.049065 -0.656463 0.015717
0.011138 -0.637539 0.015292
-0.035847 -0.613189 0.014767
-0.091099 -0.583132 0.014151
-0.152919 -0.547524 0.013459
-0.220240 -0.506061 0.012681
-0.291313 -0.458862 0.011827
-0.365017 -0.405793 0.010907
-0.439638 -0.347193 0.009927
-0.514031 -0.283188 0.008913
-0.586726 -0.214555 0.007909
-0.656636 -0.141916 0.006931
-0.722434 -0.066454 0.005995
-0.783567 0.011051 0.005097
-0.839331 0.089409 0.004219
-0.889419 0.167430 0.003357
-0.933909 0.244196 0.002519
-0.972937 0.318460 0.001724
-1.006989 0.389356 0.000976
-1.036488 0.455937 0.000284
-1.062031 0.517676 -0.000355
-1.084166 0.574322 -0.000952
-1.103286 0.625717 -0.001518
-1.119681 0.671961 -0.002068
-1.133473 0.713306 -0.002616
-1.144656 0.750135 -0.003169
-1.153140 0.782928 -0.003740
-1.158771 0.812188 -0.004332
-1.161427 0.838389 -0.004947
-1.161034 0.862159 -0.005582
-1.157643 0.883663 -0.006229
-1.151281 0.903405 -0.006890
-1.142249 0.921286 -0.007541
-1.130633 0.937683 -0.008183
-1.116844 0.952319 -0.008791
-1.100931 0.965345 -0.009360
-1.083210 0.976481 -0.009871
-1.063721 0.985667 -0.010318
-1.042680 0.992676 -0.010695
-1.019959 0.997409 -0.010996
-0.995656 0.999751 -0.011216
-0.969586 0.999633 -0.011361
-0.941854 0.996991 -0.011431
-0.912341 0.991819 -0.011430
-0.880996 0.984087 -0.011365
-0.847824 0.973813 -0.011243
-0.812767 0.960968 -0.011073
-0.775922 0.945532 -0.010864
-0.737275 0.927407 -0.010631
-0.696904 0.906485 -0.010388
-0.654934 0.882644 -0.010154
-0.611438 0.855715 -0.009948
-0.566525 0.825566 -0.009793
-0.520244 0.792068 -0.009711
-0.472634 0.755171 -0.009724
-0.423653 0.714878 -0.009852
-0.373223 0.671288 -0.010109
-0.321385 0.624739 -0.010504
-0.267863 0.575388 -0.011032
-0.213056 0.524092 -0.011684
-0.156465 0.470924 -0.012440
-0.099227 0.417457 -0.013263
-0.040895 0.363755 -0.014133
0.017733 0.310979 -0.014983
0.076511 0.259501 -0.015787
0.134281 0.210522 -0.016515
0.191044 0.164154 -0.017134
0.246026 0.120904 -0.017615
0.299401 0.080466 -0.017963
0.350223 0.043320 -0.018171
0.399009 0.008709 -0.018251
0.444852 -0.023099 -0.018217
0.488041 -0.052695 -0.018089
0.528261 -0.080230 -0.017889
0.565897 -0.106294 -0.017630
0.600583 -0.130881 -0.017331
0.632365 -0.154187 -0.017001
0.661474 -0.176498 -0.016649
0.687606 -0.197597 -0.016281
0.710991 -0.217656 -0.015886
0.731318 -0.236349 -0.015472
0.748698 -0.253611 -0.015026
0.763020 -0.269195 -0.014535
0.774261 -0.282846 -0.014002
0.782544 -0.294443 -0.013412
0.787747 -0.303576 -0.012755
0.789897 -0.310002 -0.012021
0.788941 -0.313429 -0.011204
0.784896 -0.313620 -0.010295
0.777581 -0.310260 -0.009278
0.767031 -0.303198 -0.008177
0.752987 -0.292121 -0.006967
0.735571 -0.277013 -0.005668
0.714388 -0.257478 -0.004279
0.689607 -0.233669 -0.002834
0.660507 -0.204949 -0.001340
0.627335 -0.171702 0.000133
0.589524 -0.133587 0.001590
0.547417 -0.091218 0.002975
0.500540 -0.044441 0.004254
0.448772 0.006534 0.005380
0.392218 0.061276 0.006319
0.331197 0.119170 0.007057
0.266399 0.179298 0.007576
0.198347 0.240961 0.007867
0.127665 0.303405 0.007929
0.055301 0.365645 0.007770
-0.018140 0.427040 0.007406
-0.091597 0.486629 0.006861
-0.164501 0.543931 0.006161
-0.236017 0.598334 0.005345
-0.305637 0.649582 0.004452
-0.372788 0.697460 0.003521
-0.436844 0.741797 0.002593
-0.497289 0.782560 0.001704
-0.553593 0.819730 0.000883
-0.605230 0.853279 0.000154
-0.651806 0.883227 -0.000470
-0.692846 0.909476 -0.000981
-0.728136 0.932025 -0.001383
-0.757309 0.950706 -0.001683
-0.780247 0.965454 -0.001895
-0.796761 0.976122 -0.002033
-0.806517 0.982449 -0.002108
-0.810526 0.985055 -0.002137
VECTORS q1 float
0.997539 0.034508 -0.061029
0.997397 0.033878 -0.063659
0.996926 0.031893 -0.071557
0.996012 0.028298 -0.084610
0.994466 0.022698 -0.102581
0.992007 0.014518 -0.125345
0.988265 0.003047 -0.152717
0.982769 -0.012542 -0.184412
0.975086 -0.032803 -0.219388
0.964526 -0.058718 -0.257376
0.950503 -0.090765 -0.297162
0.932472 -0.129139 -0.337372
0.909827 -0.173947 -0.376771
0.882097 -0.224871 -0.413929
0.849393 -0.280536 -0.447025
0.811630 -0.339984 -0.475044
0.769336 -0.401454 -0.496947
0.723212 -0.463228 -0.512235
0.674158 -0.523662 -0.520854
0.623360 -0.581148 -0.523153
0.571704 -0.634771 -0.519827
0.520664 -0.683350 -0.511802
0.471272 -0.726466 -0.500150
0.424324 -0.764087 -0.485922
0.380582 -0.796324 -0.470134
0.340314 -0.823681 -0.453581
0.303764 -0.846639 -0.436955
0.270972 -0.865748 -0.420779
0.241598 -0.881677 -0.405309
0.215396 -0.894940 -0.390753
0.192046 -0.905997 -0.377210
0.171033 -0.915316 -0.364615
0.152018 -0.923214 -0.352940
0.134582 -0.929985 -0.342077
0.118748 -0.935729 -0.332129
0.104034 -0.940694 -0.322911